TITLE="T"
VARIABLES="t","T1","T2","T3","T4","T5","T6","T7","T8","T9","T10","T11","T12","T13","T14","T15","T16","T17","T18","T19","T20" 
ZONE T="0", I=12000 F=POINT 
0.000000e+000 2.982169e+002 2.983249e+002 2.981844e+002 2.978437e+002 2.984874e+002 2.980902e+002 2.980399e+002 2.980957e+002 2.978678e+002 2.979802e+002 2.978201e+002 2.979106e+002 2.978245e+002 2.982044e+002 2.981218e+002 2.977567e+002 2.979775e+002 2.981803e+002 2.977437e+002 2.980486e+002 
5.000000e-002 2.981158e+002 2.983407e+002 2.979002e+002 2.978109e+002 2.978762e+002 2.980732e+002 2.984490e+002 2.980846e+002 2.974827e+002 2.978979e+002 2.979271e+002 2.978832e+002 2.978193e+002 2.982393e+002 2.984517e+002 2.981015e+002 2.978785e+002 2.980551e+002 2.979539e+002 2.979437e+002 
1.000000e-001 2.978158e+002 2.982623e+002 2.978090e+002 2.979582e+002 2.980481e+002 2.979736e+002 2.980646e+002 2.982203e+002 2.980933e+002 2.978517e+002 2.980531e+002 2.981705e+002 2.980121e+002 2.978933e+002 2.980900e+002 2.978605e+002 2.978358e+002 2.979996e+002 2.978046e+002 2.978892e+002 
1.500000e-001 2.984865e+002 2.980378e+002 2.981075e+002 2.982175e+002 2.982848e+002 2.979162e+002 2.982203e+002 2.980946e+002 2.979869e+002 2.979692e+002 2.974189e+002 2.984544e+002 2.982123e+002 2.982265e+002 2.979783e+002 2.981858e+002 2.976365e+002 2.980653e+002 2.978601e+002 2.979274e+002 
2.000000e-001 2.988556e+002 2.978175e+002 2.976383e+002 2.980684e+002 2.977005e+002 2.974604e+002 2.979678e+002 2.981150e+002 2.979639e+002 2.973478e+002 2.975925e+002 2.980514e+002 2.976283e+002 2.977827e+002 2.977777e+002 2.977427e+002 2.979352e+002 2.980113e+002 2.980636e+002 2.978216e+002 
2.500000e-001 2.986473e+002 2.980687e+002 2.979462e+002 2.983603e+002 2.979848e+002 2.981370e+002 2.982186e+002 2.979960e+002 2.976626e+002 2.984057e+002 2.977717e+002 2.979729e+002 2.982556e+002 2.977361e+002 2.982031e+002 2.979477e+002 2.979784e+002 2.980046e+002 2.978927e+002 2.982522e+002 
3.000000e-001 2.990761e+002 2.984856e+002 2.980056e+002 2.978693e+002 2.978622e+002 2.979864e+002 2.983341e+002 2.981944e+002 2.980990e+002 2.976294e+002 2.979302e+002 2.977695e+002 2.981272e+002 2.981885e+002 2.978740e+002 2.979308e+002 2.979713e+002 2.981832e+002 2.978980e+002 2.980895e+002 
3.500000e-001 2.989931e+002 2.981344e+002 2.977802e+002 2.980238e+002 2.979897e+002 2.981379e+002 2.979243e+002 2.980756e+002 2.980501e+002 2.982062e+002 2.978936e+002 2.981889e+002 2.980381e+002 2.980294e+002 2.976193e+002 2.978636e+002 2.986213e+002 2.982564e+002 2.981367e+002 2.980354e+002 
4.000000e-001 2.987820e+002 2.975007e+002 2.982919e+002 2.980279e+002 2.978745e+002 2.980488e+002 2.977328e+002 2.977847e+002 2.976567e+002 2.980580e+002 2.977894e+002 2.977968e+002 2.978745e+002 2.978176e+002 2.978726e+002 2.979138e+002 2.979542e+002 2.977396e+002 2.976270e+002 2.976808e+002 
4.500000e-001 2.995071e+002 2.978745e+002 2.983959e+002 2.979533e+002 2.982650e+002 2.979144e+002 2.980583e+002 2.980490e+002 2.985558e+002 2.980823e+002 2.976680e+002 2.979799e+002 2.977122e+002 2.978522e+002 2.982737e+002 2.984607e+002 2.979871e+002 2.977548e+002 2.984811e+002 2.982296e+002 
5.000000e-001 2.995037e+002 2.979212e+002 2.980849e+002 2.981121e+002 2.981332e+002 2.978551e+002 2.981436e+002 2.980775e+002 2.980998e+002 2.978937e+002 2.981987e+002 2.981279e+002 2.980786e+002 2.975136e+002 2.982245e+002 2.981786e+002 2.982334e+002 2.979726e+002 2.980994e+002 2.973393e+002 
5.500000e-001 2.994858e+002 2.979873e+002 2.981615e+002 2.979072e+002 2.976304e+002 2.983526e+002 2.982068e+002 2.979337e+002 2.982779e+002 2.980799e+002 2.985236e+002 2.978163e+002 2.983308e+002 2.976984e+002 2.977915e+002 2.979253e+002 2.979001e+002 2.979908e+002 2.978319e+002 2.976813e+002 
6.000000e-001 2.994886e+002 2.982893e+002 2.981424e+002 2.979436e+002 2.983205e+002 2.977456e+002 2.980048e+002 2.978947e+002 2.979612e+002 2.979637e+002 2.979604e+002 2.978187e+002 2.980780e+002 2.981962e+002 2.979628e+002 2.983349e+002 2.978326e+002 2.985931e+002 2.985202e+002 2.981409e+002 
6.500000e-001 2.992946e+002 2.982986e+002 2.980786e+002 2.974990e+002 2.978329e+002 2.980534e+002 2.982143e+002 2.977706e+002 2.980718e+002 2.980884e+002 2.979111e+002 2.982089e+002 2.983018e+002 2.982058e+002 2.978205e+002 2.980636e+002 2.977689e+002 2.978335e+002 2.974702e+002 2.978163e+002 
7.000000e-001 2.999971e+002 2.977871e+002 2.979913e+002 2.979840e+002 2.978693e+002 2.978350e+002 2.982084e+002 2.981737e+002 2.980143e+002 2.980038e+002 2.978010e+002 2.980952e+002 2.980929e+002 2.979846e+002 2.980315e+002 2.979504e+002 2.981594e+002 2.979929e+002 2.978818e+002 2.983455e+002 
7.500000e-001 3.002184e+002 2.976152e+002 2.980056e+002 2.979999e+002 2.980156e+002 2.981201e+002 2.979576e+002 2.980433e+002 2.982941e+002 2.980516e+002 2.982230e+002 2.980899e+002 2.982180e+002 2.982568e+002 2.977638e+002 2.981090e+002 2.977505e+002 2.977566e+002 2.982879e+002 2.982126e+002 
8.000000e-001 3.000648e+002 2.982975e+002 2.979995e+002 2.977423e+002 2.981036e+002 2.978981e+002 2.981368e+002 2.978092e+002 2.976745e+002 2.981195e+002 2.974257e+002 2.980750e+002 2.982219e+002 2.972661e+002 2.978494e+002 2.979524e+002 2.978053e+002 2.982701e+002 2.980193e+002 2.981488e+002 
8.500000e-001 3.005049e+002 2.980130e+002 2.980185e+002 2.978760e+002 2.980165e+002 2.980915e+002 2.979017e+002 2.980393e+002 2.978303e+002 2.982246e+002 2.977680e+002 2.981436e+002 2.979747e+002 2.981584e+002 2.980569e+002 2.981096e+002 2.979112e+002 2.981379e+002 2.977619e+002 2.981881e+002 
9.000000e-001 3.010194e+002 2.983100e+002 2.980146e+002 2.978290e+002 2.976390e+002 2.980377e+002 2.976518e+002 2.977258e+002 2.976241e+002 2.978436e+002 2.975795e+002 2.977529e+002 2.977689e+002 2.978339e+002 2.981355e+002 2.981049e+002 2.982579e+002 2.974795e+002 2.980082e+002 2.979490e+002 
9.500000e-001 3.005692e+002 2.982094e+002 2.983674e+002 2.978995e+002 2.978685e+002 2.977621e+002 2.984713e+002 2.981510e+002 2.976797e+002 2.979509e+002 2.977122e+002 2.977067e+002 2.979507e+002 2.979241e+002 2.984052e+002 2.979813e+002 2.982426e+002 2.983225e+002 2.977566e+002 2.979184e+002 
1.000000e+000 3.003415e+002 2.987441e+002 2.981889e+002 2.981195e+002 2.980293e+002 2.982160e+002 2.978724e+002 2.981459e+002 2.982813e+002 2.978314e+002 2.978547e+002 2.979417e+002 2.980584e+002 2.979557e+002 2.979975e+002 2.980369e+002 2.979685e+002 2.976785e+002 2.982512e+002 2.980480e+002 
1.050000e+000 3.009210e+002 2.983154e+002 2.980015e+002 2.980012e+002 2.983342e+002 2.979260e+002 2.977250e+002 2.979613e+002 2.980861e+002 2.983065e+002 2.979641e+002 2.979897e+002 2.983375e+002 2.979986e+002 2.981701e+002 2.978735e+002 2.983721e+002 2.979017e+002 2.983204e+002 2.981185e+002 
1.100000e+000 3.006557e+002 2.983700e+002 2.978871e+002 2.983199e+002 2.981563e+002 2.981008e+002 2.981136e+002 2.982634e+002 2.979125e+002 2.978934e+002 2.985599e+002 2.983717e+002 2.977156e+002 2.977936e+002 2.978305e+002 2.980415e+002 2.977585e+002 2.978899e+002 2.977082e+002 2.979125e+002 
1.150000e+000 3.012051e+002 2.984622e+002 2.979349e+002 2.978644e+002 2.985020e+002 2.984084e+002 2.983495e+002 2.979344e+002 2.982575e+002 2.977664e+002 2.977874e+002 2.975958e+002 2.979778e+002 2.983113e+002 2.979799e+002 2.983523e+002 2.981496e+002 2.976361e+002 2.979733e+002 2.974827e+002 
1.200000e+000 3.014614e+002 2.984350e+002 2.979758e+002 2.978399e+002 2.984960e+002 2.982263e+002 2.979401e+002 2.983690e+002 2.976465e+002 2.979264e+002 2.976076e+002 2.980713e+002 2.979789e+002 2.979509e+002 2.978729e+002 2.977717e+002 2.975074e+002 2.982946e+002 2.980339e+002 2.976320e+002 
1.250000e+000 3.015659e+002 2.987969e+002 2.979828e+002 2.982365e+002 2.980724e+002 2.978404e+002 2.977210e+002 2.980649e+002 2.977267e+002 2.978335e+002 2.979526e+002 2.982115e+002 2.982379e+002 2.980926e+002 2.981241e+002 2.981158e+002 2.980194e+002 2.978775e+002 2.978126e+002 2.981618e+002 
1.300000e+000 3.013252e+002 2.987035e+002 2.982323e+002 2.976335e+002 2.980119e+002 2.977126e+002 2.982581e+002 2.984651e+002 2.977288e+002 2.979235e+002 2.984144e+002 2.982598e+002 2.980174e+002 2.981681e+002 2.981729e+002 2.976817e+002 2.977668e+002 2.982246e+002 2.974708e+002 2.979448e+002 
1.350000e+000 3.017443e+002 2.989262e+002 2.979184e+002 2.982240e+002 2.982177e+002 2.979228e+002 2.980698e+002 2.979716e+002 2.977231e+002 2.977368e+002 2.977818e+002 2.985179e+002 2.979407e+002 2.980990e+002 2.982168e+002 2.980588e+002 2.978697e+002 2.984130e+002 2.983490e+002 2.978742e+002 
1.400000e+000 3.016970e+002 2.988731e+002 2.983368e+002 2.980939e+002 2.983835e+002 2.981285e+002 2.979433e+002 2.975557e+002 2.982606e+002 2.977058e+002 2.977089e+002 2.981706e+002 2.977966e+002 2.983984e+002 2.982322e+002 2.982673e+002 2.984625e+002 2.981857e+002 2.980931e+002 2.981320e+002 
1.450000e+000 3.018681e+002 2.985043e+002 2.975703e+002 2.980052e+002 2.976744e+002 2.979403e+002 2.979441e+002 2.980718e+002 2.974581e+002 2.980031e+002 2.982268e+002 2.979988e+002 2.979352e+002 2.978618e+002 2.978980e+002 2.977736e+002 2.982127e+002 2.980368e+002 2.977212e+002 2.974158e+002 
1.500000e+000 3.021232e+002 2.987486e+002 2.983553e+002 2.985703e+002 2.979840e+002 2.980833e+002 2.985670e+002 2.979517e+002 2.979237e+002 2.982372e+002 2.977109e+002 2.979968e+002 2.978400e+002 2.978416e+002 2.979477e+002 2.981410e+002 2.977679e+002 2.975969e+002 2.980242e+002 2.981143e+002 
1.550000e+000 3.022462e+002 2.985529e+002 2.978400e+002 2.976420e+002 2.979642e+002 2.982270e+002 2.974398e+002 2.981572e+002 2.983595e+002 2.980752e+002 2.977116e+002 2.980225e+002 2.977828e+002 2.978373e+002 2.981354e+002 2.979706e+002 2.980176e+002 2.976099e+002 2.984734e+002 2.978931e+002 
1.600000e+000 3.019712e+002 2.988436e+002 2.984110e+002 2.980648e+002 2.977936e+002 2.985096e+002 2.980845e+002 2.982170e+002 2.980129e+002 2.979182e+002 2.979515e+002 2.977501e+002 2.976166e+002 2.982294e+002 2.974678e+002 2.981489e+002 2.980848e+002 2.978686e+002 2.977190e+002 2.979652e+002 
1.650000e+000 3.019800e+002 2.984269e+002 2.979189e+002 2.979717e+002 2.977391e+002 2.979244e+002 2.977616e+002 2.981159e+002 2.976534e+002 2.977979e+002 2.975331e+002 2.976698e+002 2.978586e+002 2.979923e+002 2.982754e+002 2.980574e+002 2.978470e+002 2.979096e+002 2.981268e+002 2.979709e+002 
1.700000e+000 3.026974e+002 2.985891e+002 2.985499e+002 2.979442e+002 2.977507e+002 2.982011e+002 2.979884e+002 2.976634e+002 2.976831e+002 2.985806e+002 2.979548e+002 2.974544e+002 2.980481e+002 2.977264e+002 2.983995e+002 2.981395e+002 2.979190e+002 2.982590e+002 2.982426e+002 2.981709e+002 
1.750000e+000 3.020480e+002 2.991312e+002 2.980338e+002 2.981670e+002 2.977811e+002 2.978725e+002 2.974460e+002 2.981263e+002 2.980637e+002 2.980613e+002 2.980754e+002 2.979130e+002 2.977692e+002 2.983311e+002 2.980235e+002 2.976444e+002 2.977084e+002 2.978528e+002 2.978614e+002 2.982874e+002 
1.800000e+000 3.026700e+002 2.994072e+002 2.987757e+002 2.982542e+002 2.980380e+002 2.982467e+002 2.980510e+002 2.982479e+002 2.978874e+002 2.982399e+002 2.984431e+002 2.979617e+002 2.978827e+002 2.979095e+002 2.981115e+002 2.983506e+002 2.978193e+002 2.979202e+002 2.979182e+002 2.980035e+002 
1.850000e+000 3.026783e+002 2.989744e+002 2.982805e+002 2.977172e+002 2.981623e+002 2.977902e+002 2.981080e+002 2.977544e+002 2.976027e+002 2.980889e+002 2.980382e+002 2.980353e+002 2.980134e+002 2.981958e+002 2.975687e+002 2.980192e+002 2.979723e+002 2.982161e+002 2.976137e+002 2.979607e+002 
1.900000e+000 3.023051e+002 2.990044e+002 2.983463e+002 2.978267e+002 2.981091e+002 2.976837e+002 2.974382e+002 2.980068e+002 2.980539e+002 2.981629e+002 2.978404e+002 2.978452e+002 2.978440e+002 2.978613e+002 2.981068e+002 2.981622e+002 2.976244e+002 2.979165e+002 2.983686e+002 2.976292e+002 
1.950000e+000 3.024291e+002 2.993485e+002 2.983841e+002 2.979362e+002 2.979387e+002 2.978869e+002 2.981589e+002 2.981440e+002 2.979552e+002 2.978578e+002 2.979700e+002 2.974063e+002 2.978444e+002 2.979195e+002 2.976625e+002 2.981174e+002 2.982143e+002 2.979831e+002 2.980626e+002 2.982734e+002 
2.000000e+000 3.019519e+002 2.990899e+002 2.984457e+002 2.978565e+002 2.979700e+002 2.979100e+002 2.980293e+002 2.978103e+002 2.983218e+002 2.977395e+002 2.983346e+002 2.979201e+002 2.978381e+002 2.983749e+002 2.980302e+002 2.979259e+002 2.981671e+002 2.983500e+002 2.982961e+002 2.980874e+002 
2.050000e+000 3.025267e+002 2.985573e+002 2.981684e+002 2.982038e+002 2.979214e+002 2.976813e+002 2.975041e+002 2.979150e+002 2.976983e+002 2.981601e+002 2.976324e+002 2.980360e+002 2.983382e+002 2.980558e+002 2.982430e+002 2.976129e+002 2.979648e+002 2.983769e+002 2.980822e+002 2.984807e+002 
2.100000e+000 3.031720e+002 2.992284e+002 2.982163e+002 2.980672e+002 2.980752e+002 2.976201e+002 2.980937e+002 2.979858e+002 2.982017e+002 2.984062e+002 2.979694e+002 2.978422e+002 2.979214e+002 2.978371e+002 2.980565e+002 2.977248e+002 2.981165e+002 2.980039e+002 2.980505e+002 2.980442e+002 
2.150000e+000 3.032531e+002 2.993061e+002 2.982417e+002 2.980923e+002 2.976428e+002 2.980534e+002 2.980240e+002 2.980405e+002 2.979213e+002 2.979862e+002 2.976691e+002 2.978336e+002 2.977926e+002 2.980614e+002 2.981760e+002 2.977492e+002 2.982453e+002 2.977796e+002 2.976145e+002 2.981064e+002 
2.200000e+000 3.027474e+002 2.992465e+002 2.981813e+002 2.980193e+002 2.977689e+002 2.974251e+002 2.981732e+002 2.979346e+002 2.979836e+002 2.983574e+002 2.980393e+002 2.976095e+002 2.982460e+002 2.974041e+002 2.979506e+002 2.977502e+002 2.979585e+002 2.978913e+002 2.979681e+002 2.986039e+002 
2.250000e+000 3.028635e+002 2.991959e+002 2.983200e+002 2.982923e+002 2.981047e+002 2.977495e+002 2.983880e+002 2.979300e+002 2.977415e+002 2.978143e+002 2.975746e+002 2.986114e+002 2.980350e+002 2.979479e+002 2.977665e+002 2.973836e+002 2.981452e+002 2.978922e+002 2.983233e+002 2.977466e+002 
2.300000e+000 3.035695e+002 2.998325e+002 2.978200e+002 2.979519e+002 2.975929e+002 2.983241e+002 2.979137e+002 2.977771e+002 2.979343e+002 2.981363e+002 2.979889e+002 2.981902e+002 2.978328e+002 2.980422e+002 2.980286e+002 2.983000e+002 2.976859e+002 2.980679e+002 2.980921e+002 2.977277e+002 
2.350000e+000 3.037209e+002 2.990262e+002 2.986054e+002 2.978019e+002 2.981561e+002 2.980868e+002 2.977932e+002 2.982415e+002 2.982175e+002 2.977049e+002 2.982786e+002 2.981083e+002 2.981189e+002 2.984523e+002 2.979628e+002 2.980003e+002 2.977200e+002 2.983137e+002 2.979406e+002 2.978164e+002 
2.400000e+000 3.032341e+002 2.989688e+002 2.989342e+002 2.980738e+002 2.979239e+002 2.978763e+002 2.979023e+002 2.978602e+002 2.977721e+002 2.975998e+002 2.978424e+002 2.980860e+002 2.983742e+002 2.978344e+002 2.977001e+002 2.981944e+002 2.979947e+002 2.980180e+002 2.979501e+002 2.977607e+002 
2.450000e+000 3.034210e+002 2.998387e+002 2.989467e+002 2.982594e+002 2.977841e+002 2.978895e+002 2.983512e+002 2.979029e+002 2.981499e+002 2.980599e+002 2.978001e+002 2.976415e+002 2.978318e+002 2.978692e+002 2.977395e+002 2.979944e+002 2.979325e+002 2.982395e+002 2.982407e+002 2.981217e+002 
2.500000e+000 3.031883e+002 3.001468e+002 2.982202e+002 2.983620e+002 2.980953e+002 2.980681e+002 2.980922e+002 2.981188e+002 2.982284e+002 2.982003e+002 2.983668e+002 2.982129e+002 2.976502e+002 2.976865e+002 2.977323e+002 2.978866e+002 2.982036e+002 2.980350e+002 2.979815e+002 2.980783e+002 
2.550000e+000 3.031332e+002 2.997770e+002 2.983428e+002 2.979992e+002 2.978302e+002 2.977892e+002 2.981205e+002 2.981371e+002 2.981807e+002 2.975548e+002 2.978419e+002 2.979986e+002 2.983384e+002 2.976731e+002 2.981492e+002 2.981707e+002 2.980935e+002 2.977260e+002 2.981113e+002 2.982001e+002 
2.600000e+000 3.038905e+002 2.998183e+002 2.987046e+002 2.978084e+002 2.977908e+002 2.976975e+002 2.979517e+002 2.978587e+002 2.979420e+002 2.978376e+002 2.982311e+002 2.984026e+002 2.983352e+002 2.978385e+002 2.974843e+002 2.982435e+002 2.976912e+002 2.981472e+002 2.980320e+002 2.983273e+002 
2.650000e+000 3.031936e+002 2.996510e+002 2.987657e+002 2.982625e+002 2.984454e+002 2.978746e+002 2.984413e+002 2.984514e+002 2.979369e+002 2.977439e+002 2.981775e+002 2.980324e+002 2.982235e+002 2.977622e+002 2.977539e+002 2.980971e+002 2.979449e+002 2.981957e+002 2.974509e+002 2.984067e+002 
2.700000e+000 3.039636e+002 2.995128e+002 2.985802e+002 2.976793e+002 2.979463e+002 2.975769e+002 2.979077e+002 2.983144e+002 2.979254e+002 2.984036e+002 2.981299e+002 2.979126e+002 2.981656e+002 2.985029e+002 2.977840e+002 2.980439e+002 2.985191e+002 2.981498e+002 2.976516e+002 2.979490e+002 
2.750000e+000 3.036382e+002 2.995413e+002 2.987923e+002 2.978045e+002 2.977855e+002 2.979385e+002 2.979610e+002 2.977762e+002 2.976677e+002 2.977410e+002 2.979765e+002 2.982273e+002 2.979011e+002 2.977196e+002 2.981136e+002 2.981703e+002 2.980450e+002 2.979596e+002 2.980124e+002 2.979964e+002 
2.800000e+000 3.037021e+002 3.000787e+002 2.984616e+002 2.978207e+002 2.981926e+002 2.981853e+002 2.980309e+002 2.980360e+002 2.978026e+002 2.979602e+002 2.977169e+002 2.982008e+002 2.979940e+002 2.986269e+002 2.979275e+002 2.977843e+002 2.981359e+002 2.978455e+002 2.980349e+002 2.979354e+002 
2.850000e+000 3.036735e+002 2.997406e+002 2.981227e+002 2.981727e+002 2.978495e+002 2.976034e+002 2.985265e+002 2.978237e+002 2.985173e+002 2.978769e+002 2.982627e+002 2.981257e+002 2.983904e+002 2.981696e+002 2.982891e+002 2.984517e+002 2.978523e+002 2.976152e+002 2.975826e+002 2.984774e+002 
2.900000e+000 3.035175e+002 3.000181e+002 2.986833e+002 2.977976e+002 2.974979e+002 2.983712e+002 2.981090e+002 2.979701e+002 2.975632e+002 2.979764e+002 2.977814e+002 2.977366e+002 2.979722e+002 2.982488e+002 2.974904e+002 2.975776e+002 2.980900e+002 2.983299e+002 2.978474e+002 2.977971e+002 
2.950000e+000 3.042850e+002 3.000027e+002 2.989713e+002 2.980640e+002 2.983362e+002 2.980248e+002 2.977416e+002 2.984319e+002 2.979642e+002 2.979312e+002 2.983587e+002 2.981328e+002 2.974043e+002 2.980961e+002 2.976837e+002 2.980315e+002 2.984341e+002 2.982167e+002 2.978646e+002 2.980733e+002 
3.000000e+000 3.038414e+002 3.000379e+002 2.987844e+002 2.983432e+002 2.980517e+002 2.982625e+002 2.979179e+002 2.979361e+002 2.982266e+002 2.977521e+002 2.977826e+002 2.984020e+002 2.982008e+002 2.979892e+002 2.975880e+002 2.979099e+002 2.978690e+002 2.979966e+002 2.979341e+002 2.983051e+002 
3.050000e+000 3.038118e+002 3.000129e+002 2.989136e+002 2.981659e+002 2.982573e+002 2.978278e+002 2.978222e+002 2.979282e+002 2.983621e+002 2.976854e+002 2.979997e+002 2.984916e+002 2.976716e+002 2.980706e+002 2.977840e+002 2.974859e+002 2.980511e+002 2.982584e+002 2.981286e+002 2.977755e+002 
3.100000e+000 3.046593e+002 3.006625e+002 2.983532e+002 2.981207e+002 2.977683e+002 2.976807e+002 2.980977e+002 2.978372e+002 2.980292e+002 2.982835e+002 2.984107e+002 2.981081e+002 2.980122e+002 2.982011e+002 2.978053e+002 2.978564e+002 2.982772e+002 2.978710e+002 2.982955e+002 2.981904e+002 
3.150000e+000 3.037921e+002 3.001937e+002 2.981895e+002 2.978437e+002 2.982343e+002 2.977152e+002 2.975518e+002 2.980227e+002 2.977394e+002 2.980813e+002 2.982621e+002 2.976929e+002 2.978634e+002 2.976648e+002 2.978433e+002 2.978077e+002 2.981986e+002 2.980344e+002 2.978498e+002 2.978371e+002 
3.200000e+000 3.038057e+002 3.002085e+002 2.988964e+002 2.984461e+002 2.974759e+002 2.979949e+002 2.975792e+002 2.982224e+002 2.984784e+002 2.976904e+002 2.980491e+002 2.979812e+002 2.981639e+002 2.978026e+002 2.982667e+002 2.981431e+002 2.978221e+002 2.983529e+002 2.981130e+002 2.982335e+002 
3.250000e+000 3.040031e+002 3.001028e+002 2.984372e+002 2.980771e+002 2.979818e+002 2.980734e+002 2.979496e+002 2.981129e+002 2.980860e+002 2.982601e+002 2.980740e+002 2.984024e+002 2.981448e+002 2.982658e+002 2.978989e+002 2.982101e+002 2.975368e+002 2.978730e+002 2.981623e+002 2.978839e+002 
3.300000e+000 3.045198e+002 3.001517e+002 2.987193e+002 2.983243e+002 2.979881e+002 2.981737e+002 2.984337e+002 2.979469e+002 2.978497e+002 2.979327e+002 2.978237e+002 2.977813e+002 2.983014e+002 2.975002e+002 2.981577e+002 2.977841e+002 2.979801e+002 2.982173e+002 2.980378e+002 2.977542e+002 
3.350000e+000 3.042815e+002 3.002111e+002 2.991016e+002 2.983745e+002 2.981463e+002 2.978006e+002 2.976156e+002 2.982026e+002 2.979931e+002 2.981577e+002 2.980733e+002 2.981537e+002 2.979774e+002 2.983300e+002 2.975353e+002 2.977390e+002 2.980318e+002 2.976215e+002 2.981544e+002 2.984393e+002 
3.400000e+000 3.044453e+002 3.000658e+002 2.987955e+002 2.982186e+002 2.976403e+002 2.976705e+002 2.979012e+002 2.976595e+002 2.979464e+002 2.976038e+002 2.981309e+002 2.982454e+002 2.983392e+002 2.980957e+002 2.980567e+002 2.982804e+002 2.976373e+002 2.979883e+002 2.978697e+002 2.983534e+002 
3.450000e+000 3.044161e+002 2.999254e+002 2.983415e+002 2.981286e+002 2.981878e+002 2.980552e+002 2.982212e+002 2.979027e+002 2.981799e+002 2.979649e+002 2.986050e+002 2.980073e+002 2.981281e+002 2.981435e+002 2.983429e+002 2.982143e+002 2.978794e+002 2.977894e+002 2.976463e+002 2.981660e+002 
3.500000e+000 3.041363e+002 3.000032e+002 2.986371e+002 2.980852e+002 2.978806e+002 2.981384e+002 2.979725e+002 2.986519e+002 2.983566e+002 2.980559e+002 2.982240e+002 2.975972e+002 2.979217e+002 2.977858e+002 2.977857e+002 2.979523e+002 2.980407e+002 2.976913e+002 2.974802e+002 2.978684e+002 
3.550000e+000 3.044870e+002 3.003138e+002 2.984774e+002 2.978443e+002 2.980880e+002 2.980101e+002 2.979129e+002 2.978533e+002 2.980636e+002 2.979533e+002 2.979342e+002 2.980463e+002 2.980200e+002 2.977312e+002 2.977501e+002 2.983357e+002 2.979344e+002 2.979737e+002 2.979889e+002 2.978475e+002 
3.600000e+000 3.043042e+002 2.999957e+002 2.986465e+002 2.977661e+002 2.977239e+002 2.977385e+002 2.982387e+002 2.975256e+002 2.978695e+002 2.977344e+002 2.981009e+002 2.980377e+002 2.984071e+002 2.981234e+002 2.979119e+002 2.979474e+002 2.981411e+002 2.979379e+002 2.981130e+002 2.983588e+002 
3.650000e+000 3.050046e+002 3.005821e+002 2.984574e+002 2.982787e+002 2.982649e+002 2.979949e+002 2.976196e+002 2.975659e+002 2.981706e+002 2.983702e+002 2.984152e+002 2.982689e+002 2.979112e+002 2.983109e+002 2.983488e+002 2.981580e+002 2.981667e+002 2.983511e+002 2.975893e+002 2.983510e+002 
3.700000e+000 3.043373e+002 3.006020e+002 2.988037e+002 2.987852e+002 2.979460e+002 2.981637e+002 2.979864e+002 2.980444e+002 2.979216e+002 2.983090e+002 2.977270e+002 2.977559e+002 2.979118e+002 2.974778e+002 2.978687e+002 2.977778e+002 2.977893e+002 2.974291e+002 2.979783e+002 2.980257e+002 
3.750000e+000 3.042662e+002 3.006397e+002 2.994563e+002 2.979353e+002 2.984187e+002 2.976728e+002 2.976284e+002 2.981771e+002 2.980243e+002 2.984969e+002 2.981228e+002 2.983107e+002 2.981107e+002 2.980321e+002 2.979770e+002 2.985693e+002 2.982583e+002 2.982192e+002 2.978827e+002 2.978008e+002 
3.800000e+000 3.046478e+002 3.005933e+002 2.991707e+002 2.982115e+002 2.978916e+002 2.980483e+002 2.976548e+002 2.979198e+002 2.978681e+002 2.981629e+002 2.978886e+002 2.981921e+002 2.983716e+002 2.982015e+002 2.980878e+002 2.975048e+002 2.984343e+002 2.980936e+002 2.984246e+002 2.978095e+002 
3.850000e+000 3.049321e+002 3.005006e+002 2.992804e+002 2.985982e+002 2.982893e+002 2.977179e+002 2.982693e+002 2.980719e+002 2.982696e+002 2.978575e+002 2.978801e+002 2.980421e+002 2.981449e+002 2.980469e+002 2.978619e+002 2.983204e+002 2.980799e+002 2.980719e+002 2.979853e+002 2.980522e+002 
3.900000e+000 3.045668e+002 3.007372e+002 2.990406e+002 2.981390e+002 2.978109e+002 2.979749e+002 2.977925e+002 2.979175e+002 2.982549e+002 2.984162e+002 2.977041e+002 2.980805e+002 2.980438e+002 2.976219e+002 2.979585e+002 2.978968e+002 2.975586e+002 2.981772e+002 2.979297e+002 2.981498e+002 
3.950000e+000 3.049892e+002 3.005838e+002 2.991920e+002 2.988833e+002 2.980987e+002 2.980617e+002 2.980091e+002 2.979991e+002 2.976381e+002 2.981821e+002 2.978983e+002 2.983714e+002 2.979477e+002 2.977320e+002 2.979245e+002 2.978550e+002 2.982608e+002 2.977674e+002 2.980340e+002 2.977025e+002 
4.000000e+000 3.046214e+002 3.006612e+002 2.987705e+002 2.983853e+002 2.981891e+002 2.982205e+002 2.982640e+002 2.980189e+002 2.980204e+002 2.980102e+002 2.979441e+002 2.981526e+002 2.982053e+002 2.979720e+002 2.981110e+002 2.976883e+002 2.982673e+002 2.980232e+002 2.981889e+002 2.983232e+002 
4.050000e+000 3.051789e+002 3.007875e+002 2.991467e+002 2.983762e+002 2.987848e+002 2.979180e+002 2.976564e+002 2.981542e+002 2.980598e+002 2.981074e+002 2.983733e+002 2.980322e+002 2.979684e+002 2.981936e+002 2.980454e+002 2.977136e+002 2.978751e+002 2.981629e+002 2.976206e+002 2.979239e+002 
4.100000e+000 3.045049e+002 3.008454e+002 2.991975e+002 2.982789e+002 2.981698e+002 2.978000e+002 2.975194e+002 2.980025e+002 2.980648e+002 2.979229e+002 2.981290e+002 2.980014e+002 2.978331e+002 2.978765e+002 2.979956e+002 2.982695e+002 2.976271e+002 2.979307e+002 2.981449e+002 2.978979e+002 
4.150000e+000 3.050204e+002 3.007976e+002 2.989530e+002 2.986152e+002 2.983618e+002 2.981021e+002 2.976101e+002 2.980137e+002 2.978190e+002 2.983611e+002 2.975471e+002 2.983349e+002 2.976341e+002 2.978758e+002 2.980673e+002 2.983367e+002 2.978030e+002 2.980275e+002 2.983083e+002 2.978880e+002 
4.200000e+000 3.052073e+002 3.012139e+002 2.989204e+002 2.987012e+002 2.983043e+002 2.980870e+002 2.976561e+002 2.976445e+002 2.980393e+002 2.976510e+002 2.984605e+002 2.983399e+002 2.981662e+002 2.982051e+002 2.974857e+002 2.978619e+002 2.980094e+002 2.984400e+002 2.978264e+002 2.984144e+002 
4.250000e+000 3.046861e+002 3.009175e+002 2.990110e+002 2.983367e+002 2.984476e+002 2.982373e+002 2.986358e+002 2.981288e+002 2.982190e+002 2.980403e+002 2.980394e+002 2.983140e+002 2.978737e+002 2.984530e+002 2.982582e+002 2.978188e+002 2.976508e+002 2.981563e+002 2.976759e+002 2.978446e+002 
4.300000e+000 3.053671e+002 3.009313e+002 2.991406e+002 2.984912e+002 2.980713e+002 2.980854e+002 2.979770e+002 2.982220e+002 2.981535e+002 2.980866e+002 2.979273e+002 2.981216e+002 2.982074e+002 2.982948e+002 2.979836e+002 2.981016e+002 2.978851e+002 2.980258e+002 2.981380e+002 2.978576e+002 
4.350000e+000 3.056342e+002 3.005301e+002 2.991805e+002 2.983537e+002 2.980619e+002 2.979112e+002 2.987002e+002 2.977450e+002 2.978589e+002 2.980226e+002 2.975607e+002 2.978683e+002 2.977922e+002 2.979461e+002 2.980438e+002 2.983848e+002 2.982760e+002 2.979069e+002 2.976998e+002 2.980675e+002 
4.400000e+000 3.052800e+002 3.010661e+002 2.988051e+002 2.985661e+002 2.983945e+002 2.982844e+002 2.980960e+002 2.979000e+002 2.979493e+002 2.979863e+002 2.984376e+002 2.981866e+002 2.978332e+002 2.983154e+002 2.981215e+002 2.977002e+002 2.974377e+002 2.981822e+002 2.977102e+002 2.979000e+002 
4.450000e+000 3.055230e+002 3.012589e+002 2.993664e+002 2.983950e+002 2.981253e+002 2.979713e+002 2.977950e+002 2.982794e+002 2.978535e+002 2.979336e+002 2.980001e+002 2.980543e+002 2.981663e+002 2.978637e+002 2.979393e+002 2.979440e+002 2.976382e+002 2.980095e+002 2.979139e+002 2.979227e+002 
4.500000e+000 3.053828e+002 3.007962e+002 2.993695e+002 2.986302e+002 2.986224e+002 2.981270e+002 2.980168e+002 2.985351e+002 2.977091e+002 2.975209e+002 2.976171e+002 2.982136e+002 2.978160e+002 2.980261e+002 2.975674e+002 2.981367e+002 2.979123e+002 2.982426e+002 2.980478e+002 2.981351e+002 
4.550000e+000 3.051273e+002 3.009344e+002 2.992465e+002 2.984593e+002 2.978924e+002 2.976953e+002 2.981646e+002 2.980759e+002 2.980236e+002 2.978332e+002 2.975816e+002 2.979876e+002 2.979563e+002 2.983275e+002 2.979694e+002 2.979954e+002 2.977107e+002 2.978715e+002 2.980841e+002 2.979392e+002 
4.600000e+000 3.052641e+002 3.008594e+002 2.989443e+002 2.983430e+002 2.977642e+002 2.983590e+002 2.981780e+002 2.980743e+002 2.981433e+002 2.977338e+002 2.982238e+002 2.984519e+002 2.977673e+002 2.983624e+002 2.975559e+002 2.981492e+002 2.980946e+002 2.976410e+002 2.981196e+002 2.979828e+002 
4.650000e+000 3.050002e+002 3.007146e+002 2.997068e+002 2.986469e+002 2.979596e+002 2.984178e+002 2.984055e+002 2.974768e+002 2.981130e+002 2.977301e+002 2.980854e+002 2.982290e+002 2.983185e+002 2.978728e+002 2.980084e+002 2.979521e+002 2.977105e+002 2.981825e+002 2.981563e+002 2.980784e+002 
4.700000e+000 3.053508e+002 3.006102e+002 2.993624e+002 2.983750e+002 2.982183e+002 2.980239e+002 2.977556e+002 2.982148e+002 2.976545e+002 2.980425e+002 2.977485e+002 2.979008e+002 2.979602e+002 2.982534e+002 2.984711e+002 2.982597e+002 2.980244e+002 2.982351e+002 2.979952e+002 2.977523e+002 
4.750000e+000 3.056511e+002 3.012157e+002 2.988025e+002 2.980262e+002 2.987154e+002 2.982685e+002 2.984846e+002 2.974637e+002 2.979559e+002 2.980476e+002 2.978010e+002 2.979942e+002 2.977916e+002 2.982569e+002 2.983720e+002 2.981490e+002 2.984142e+002 2.982662e+002 2.982972e+002 2.981004e+002 
4.800000e+000 3.054752e+002 3.011972e+002 2.989141e+002 2.987734e+002 2.980211e+002 2.982178e+002 2.975524e+002 2.977580e+002 2.981689e+002 2.978291e+002 2.980796e+002 2.981763e+002 2.980968e+002 2.977586e+002 2.978944e+002 2.980655e+002 2.984737e+002 2.978457e+002 2.982608e+002 2.981979e+002 
4.850000e+000 3.055720e+002 3.010619e+002 2.993611e+002 2.982899e+002 2.981709e+002 2.978310e+002 2.982564e+002 2.981985e+002 2.977495e+002 2.980633e+002 2.982784e+002 2.978750e+002 2.978049e+002 2.982271e+002 2.982756e+002 2.982784e+002 2.978331e+002 2.981366e+002 2.980139e+002 2.982844e+002 
4.900000e+000 3.058674e+002 3.010380e+002 2.991966e+002 2.985372e+002 2.980976e+002 2.978103e+002 2.980326e+002 2.982121e+002 2.974967e+002 2.980259e+002 2.977308e+002 2.978975e+002 2.975686e+002 2.978115e+002 2.979101e+002 2.981184e+002 2.979329e+002 2.981009e+002 2.981140e+002 2.980584e+002 
4.950000e+000 3.055066e+002 3.017844e+002 2.990989e+002 2.977824e+002 2.981530e+002 2.976849e+002 2.979142e+002 2.977669e+002 2.975085e+002 2.975958e+002 2.977843e+002 2.978786e+002 2.979840e+002 2.981171e+002 2.982752e+002 2.976955e+002 2.981789e+002 2.977903e+002 2.980759e+002 2.982295e+002 
5.000000e+000 3.057535e+002 3.017604e+002 2.989718e+002 2.987933e+002 2.980396e+002 2.983268e+002 2.982301e+002 2.983161e+002 2.979813e+002 2.980938e+002 2.981093e+002 2.981876e+002 2.976930e+002 2.982167e+002 2.976096e+002 2.980165e+002 2.978630e+002 2.981940e+002 2.980777e+002 2.981285e+002 