TITLE="T"
VARIABLES="t","T1","T2","T3","T4","T5","T6","T7","T8","T9","T10","T11","T12","T13","T14","T15","T16","T17","T18","T19","T20" 
ZONE T="0", I=12000 F=POINT 
0.000000e+000 3.001401e+002 3.012494e+002 2.998441e+002 2.964370e+002 3.028736e+002 2.989025e+002 2.983994e+002 2.989570e+002 2.966777e+002 2.978025e+002 2.962012e+002 2.971058e+002 2.962452e+002 3.000437e+002 2.992183e+002 2.955672e+002 2.977746e+002 2.998029e+002 2.954372e+002 2.984864e+002 
5.000000e-002 2.989329e+002 3.014074e+002 2.970023e+002 2.961087e+002 2.967615e+002 2.987317e+002 3.024900e+002 2.988457e+002 2.928275e+002 2.969785e+002 2.972710e+002 2.968325e+002 2.961930e+002 3.003934e+002 3.025165e+002 2.990146e+002 2.967849e+002 2.985509e+002 2.975388e+002 2.974367e+002 
1.000000e-001 2.953517e+002 3.006224e+002 2.960900e+002 2.975818e+002 2.984809e+002 2.977356e+002 2.986457e+002 3.002034e+002 2.989332e+002 2.965171e+002 2.985312e+002 2.997049e+002 2.981206e+002 2.969327e+002 2.988997e+002 2.966050e+002 2.963578e+002 2.979957e+002 2.960460e+002 2.968924e+002 
1.500000e-001 3.010303e+002 2.983746e+002 2.990746e+002 3.001751e+002 3.008484e+002 2.971616e+002 3.002025e+002 2.989455e+002 2.978693e+002 2.976922e+002 2.921894e+002 3.025444e+002 3.001233e+002 3.002652e+002 2.977832e+002 2.998578e+002 2.943651e+002 2.986535e+002 2.966013e+002 2.972738e+002 
2.000000e-001 3.034044e+002 2.961627e+002 2.943834e+002 2.986837e+002 2.950046e+002 2.926037e+002 2.976775e+002 2.991497e+002 2.976391e+002 2.914785e+002 2.939252e+002 2.985138e+002 2.942827e+002 2.958272e+002 2.957769e+002 2.954267e+002 2.973525e+002 2.981133e+002 2.986361e+002 2.962163e+002 
2.500000e-001 2.998692e+002 2.986540e+002 2.974619e+002 3.016033e+002 2.978483e+002 2.993703e+002 3.001861e+002 2.979599e+002 2.946261e+002 3.020574e+002 2.957174e+002 2.977288e+002 3.005564e+002 2.953612e+002 3.000313e+002 2.974765e+002 2.977842e+002 2.980455e+002 2.969272e+002 3.005216e+002 
3.000000e-001 3.026325e+002 3.027838e+002 2.980561e+002 2.966929e+002 2.966224e+002 2.978638e+002 3.013405e+002 2.999444e+002 2.989904e+002 2.942942e+002 2.973021e+002 2.956954e+002 2.992724e+002 2.998848e+002 2.967400e+002 2.973076e+002 2.977132e+002 2.998322e+002 2.969803e+002 2.988952e+002 
3.500000e-001 3.002531e+002 2.992076e+002 2.958012e+002 2.982378e+002 2.978968e+002 2.993795e+002 2.972431e+002 2.987560e+002 2.985006e+002 3.000615e+002 2.969364e+002 2.998885e+002 2.983811e+002 2.982941e+002 2.941930e+002 2.966361e+002 3.042130e+002 3.005637e+002 2.993671e+002 2.983536e+002 
4.000000e-001 2.965989e+002 2.927784e+002 3.009168e+002 2.982795e+002 2.967450e+002 2.984882e+002 2.953283e+002 2.958469e+002 2.945670e+002 2.985798e+002 2.958941e+002 2.959678e+002 2.967450e+002 2.961756e+002 2.967263e+002 2.971378e+002 2.975420e+002 2.953960e+002 2.942699e+002 2.948082e+002 
4.500000e-001 3.023252e+002 2.963955e+002 3.019553e+002 2.975329e+002 3.006502e+002 2.971438e+002 2.985830e+002 2.984905e+002 3.035579e+002 2.988233e+002 2.946796e+002 2.977988e+002 2.951218e+002 2.965221e+002 3.007367e+002 3.026072e+002 2.978711e+002 2.955480e+002 3.028113e+002 3.002959e+002 
5.000000e-001 3.007988e+002 2.967107e+002 2.988424e+002 2.991208e+002 2.993319e+002 2.965509e+002 2.994358e+002 2.987748e+002 2.989982e+002 2.969373e+002 2.999874e+002 2.992788e+002 2.987858e+002 2.931365e+002 3.002446e+002 2.997864e+002 3.003344e+002 2.977265e+002 2.989945e+002 2.913933e+002 
5.500000e-001 2.991644e+002 2.971929e+002 2.996025e+002 2.970724e+002 2.943038e+002 3.015264e+002 3.000679e+002 2.973369e+002 3.007789e+002 2.987995e+002 3.032361e+002 2.961628e+002 3.013085e+002 2.949845e+002 2.959151e+002 2.972527e+002 2.970009e+002 2.979078e+002 2.963189e+002 2.948128e+002 
6.000000e-001 2.977759e+002 3.000072e+002 2.994030e+002 2.974358e+002 3.012046e+002 2.954564e+002 2.980478e+002 2.969469e+002 2.976120e+002 2.976368e+002 2.976038e+002 2.961875e+002 2.987798e+002 2.999617e+002 2.976276e+002 3.013488e+002 2.963262e+002 3.039306e+002 3.032023e+002 2.994092e+002 
6.500000e-001 2.944601e+002 2.998696e+002 2.987533e+002 2.929900e+002 2.963294e+002 2.985335e+002 3.001426e+002 2.957059e+002 2.987185e+002 2.988837e+002 2.971108e+002 3.000890e+002 3.010183e+002 3.000579e+002 2.962053e+002 2.986361e+002 2.956894e+002 2.963353e+002 2.927016e+002 2.961632e+002 
7.000000e-001 3.001503e+002 2.945029e+002 2.978646e+002 2.978396e+002 2.966933e+002 2.963500e+002 3.000844e+002 2.997365e+002 2.981426e+002 2.980378e+002 2.960103e+002 2.989524e+002 2.989295e+002 2.978460e+002 2.983152e+002 2.975036e+002 2.995937e+002 2.979288e+002 2.968183e+002 3.014550e+002 
7.500000e-001 3.010679e+002 2.925114e+002 2.979881e+002 2.979976e+002 2.981559e+002 2.992014e+002 2.975759e+002 2.984328e+002 3.009409e+002 2.985157e+002 3.002295e+002 2.988993e+002 3.001796e+002 3.005678e+002 2.956377e+002 2.990902e+002 2.955045e+002 2.955663e+002 3.008791e+002 3.001256e+002 
8.000000e-001 2.982764e+002 2.990457e+002 2.979020e+002 2.954209e+002 2.990357e+002 2.969812e+002 2.993676e+002 2.960923e+002 2.947451e+002 2.991954e+002 2.922567e+002 2.987496e+002 3.002190e+002 2.906609e+002 2.964942e+002 2.975242e+002 2.960534e+002 3.007010e+002 2.981929e+002 2.994875e+002 
8.500000e-001 3.014597e+002 2.958954e+002 2.980616e+002 2.967564e+002 2.981650e+002 2.989153e+002 2.970174e+002 2.983925e+002 2.963033e+002 3.002460e+002 2.956798e+002 2.994362e+002 2.977471e+002 2.995841e+002 2.985688e+002 2.990957e+002 2.971117e+002 2.993790e+002 2.956189e+002 2.998812e+002 
9.000000e-001 3.054226e+002 2.985464e+002 2.979867e+002 2.962851e+002 2.943903e+002 2.983774e+002 2.945185e+002 2.952582e+002 2.942411e+002 2.964356e+002 2.937948e+002 2.955288e+002 2.956890e+002 2.963395e+002 2.993552e+002 2.990485e+002 3.005793e+002 2.927955e+002 2.980817e+002 2.974898e+002 
9.500000e-001 2.997737e+002 2.972103e+002 3.014739e+002 2.969880e+002 2.966851e+002 2.956208e+002 3.027129e+002 2.995099e+002 2.947973e+002 2.975086e+002 2.951223e+002 2.950673e+002 2.975072e+002 2.972408e+002 3.020519e+002 2.978130e+002 3.004264e+002 3.012252e+002 2.955663e+002 2.971840e+002 
1.000000e+000 2.963825e+002 3.022161e+002 2.996417e+002 2.991852e+002 2.982928e+002 3.001595e+002 2.967235e+002 2.994587e+002 3.008132e+002 2.963138e+002 2.965473e+002 2.974175e+002 2.985843e+002 2.975567e+002 2.979751e+002 2.983687e+002 2.976853e+002 2.947849e+002 3.005124e+002 2.984804e+002 
1.050000e+000 3.010950e+002 2.975798e+002 2.977146e+002 2.979977e+002 3.013419e+002 2.972605e+002 2.952500e+002 2.976134e+002 2.988613e+002 3.010654e+002 2.976409e+002 2.978968e+002 3.013753e+002 2.979860e+002 2.997013e+002 2.967345e+002 3.017209e+002 2.970170e+002 3.012037e+002 2.991854e+002 
1.100000e+000 2.973906e+002 2.977686e+002 2.965119e+002 3.011799e+002 2.995626e+002 2.990082e+002 2.991359e+002 3.006342e+002 2.971254e+002 2.969336e+002 3.035987e+002 3.017173e+002 2.951561e+002 2.959362e+002 2.963051e+002 2.984145e+002 2.955851e+002 2.968993e+002 2.950824e+002 2.971254e+002 
1.150000e+000 3.018608e+002 2.983281e+002 2.969255e+002 2.966194e+002 3.030193e+002 3.020844e+002 3.014948e+002 2.973438e+002 3.005747e+002 2.956643e+002 2.958744e+002 2.939577e+002 2.977778e+002 3.011126e+002 2.977988e+002 3.015232e+002 2.994962e+002 2.943610e+002 2.977329e+002 2.928270e+002 
1.200000e+000 3.034290e+002 2.976866e+002 2.972646e+002 2.963679e+002 3.029589e+002 3.002630e+002 2.974015e+002 3.016903e+002 2.944654e+002 2.972637e+002 2.940758e+002 2.987125e+002 2.977887e+002 2.975090e+002 2.967286e+002 2.957174e+002 2.930742e+002 3.009464e+002 2.983385e+002 2.943203e+002 
1.250000e+000 3.035046e+002 3.009335e+002 2.972590e+002 3.003259e+002 2.987228e+002 2.964040e+002 2.952102e+002 2.986489e+002 2.952669e+002 2.963349e+002 2.975255e+002 3.001151e+002 3.003788e+002 2.989263e+002 2.992412e+002 2.991579e+002 2.981943e+002 2.967753e+002 2.961261e+002 2.996184e+002 
1.300000e+000 3.001531e+002 2.996226e+002 2.996724e+002 2.942864e+002 2.981168e+002 2.951264e+002 3.005811e+002 3.026507e+002 2.952884e+002 2.972353e+002 3.021444e+002 3.005980e+002 2.981742e+002 2.996811e+002 2.997287e+002 2.948169e+002 2.956684e+002 3.002465e+002 2.927076e+002 2.974482e+002 
1.350000e+000 3.034232e+002 3.014700e+002 2.964476e+002 3.001800e+002 3.001741e+002 2.972275e+002 2.986979e+002 2.977160e+002 2.952312e+002 2.953676e+002 2.958181e+002 3.031789e+002 2.974070e+002 2.989904e+002 3.001682e+002 2.985875e+002 2.966970e+002 3.021302e+002 3.014898e+002 2.967423e+002 
1.400000e+000 3.020528e+002 3.005571e+002 3.005402e+002 2.988673e+002 3.018313e+002 2.992852e+002 2.974326e+002 2.935572e+002 3.006063e+002 2.950577e+002 2.950889e+002 2.997059e+002 2.959659e+002 3.019837e+002 3.003220e+002 3.006731e+002 3.026255e+002 2.998574e+002 2.989313e+002 2.993195e+002 
1.450000e+000 3.028881e+002 2.964868e+002 2.927784e+002 2.979658e+002 2.947392e+002 2.974024e+002 2.974413e+002 2.987185e+002 2.925812e+002 2.980314e+002 3.002680e+002 2.979883e+002 2.973516e+002 2.966178e+002 2.969799e+002 2.957361e+002 3.001265e+002 2.983683e+002 2.952115e+002 2.921578e+002 
1.500000e+000 3.045838e+002 2.985454e+002 3.005279e+002 3.036015e+002 2.978339e+002 2.988329e+002 3.036701e+002 2.975168e+002 2.972367e+002 3.003719e+002 2.951095e+002 2.979677e+002 2.963999e+002 2.964159e+002 2.974765e+002 2.994097e+002 2.956789e+002 2.939687e+002 2.982424e+002 2.991433e+002 
1.550000e+000 3.049784e+002 2.962036e+002 2.952694e+002 2.943013e+002 2.976335e+002 3.002699e+002 2.923977e+002 2.995717e+002 3.015950e+002 2.987519e+002 2.951163e+002 2.982250e+002 2.958277e+002 2.963729e+002 2.993543e+002 2.977059e+002 2.981765e+002 2.940987e+002 3.027340e+002 2.969314e+002 
1.600000e+000 3.014131e+002 2.987253e+002 3.008690e+002 2.985098e+002 2.959262e+002 3.030957e+002 2.988448e+002 3.001700e+002 2.981289e+002 2.971817e+002 2.975150e+002 2.955013e+002 2.941660e+002 3.002936e+002 2.926778e+002 2.994889e+002 2.988480e+002 2.966864e+002 2.951896e+002 2.976523e+002 
1.650000e+000 3.007027e+002 2.941735e+002 2.958344e+002 2.975588e+002 2.953780e+002 2.972432e+002 2.956157e+002 2.991593e+002 2.945336e+002 2.959787e+002 2.933310e+002 2.946979e+002 2.965857e+002 2.979229e+002 3.007537e+002 2.985738e+002 2.964704e+002 2.970961e+002 2.992682e+002 2.977091e+002 
1.700000e+000 3.070961e+002 2.954112e+002 3.020264e+002 2.972608e+002 2.954923e+002 3.000104e+002 2.978844e+002 2.946338e+002 2.948307e+002 3.038060e+002 2.975480e+002 2.925441e+002 2.984813e+002 2.952637e+002 3.019951e+002 2.993950e+002 2.971904e+002 3.005898e+002 3.004264e+002 2.997091e+002 
1.750000e+000 2.998393e+002 3.004491e+002 2.967437e+002 2.994645e+002 2.957929e+002 2.967241e+002 2.924595e+002 2.992627e+002 2.986370e+002 2.986127e+002 2.987542e+002 2.971300e+002 2.956922e+002 3.013108e+002 2.982351e+002 2.944443e+002 2.950838e+002 2.965281e+002 2.966137e+002 3.008741e+002 
1.800000e+000 3.053110e+002 3.028263e+002 3.040378e+002 3.003107e+002 2.983584e+002 3.004659e+002 2.985097e+002 3.004795e+002 2.968737e+002 3.003994e+002 3.024309e+002 2.976166e+002 2.968270e+002 2.970952e+002 2.991153e+002 3.015058e+002 2.961934e+002 2.972019e+002 2.971822e+002 2.980346e+002 
1.850000e+000 3.046626e+002 2.981167e+002 2.989569e+002 2.949127e+002 2.995977e+002 2.959002e+002 2.990796e+002 2.955439e+002 2.940273e+002 2.988892e+002 2.983815e+002 2.983532e+002 2.981339e+002 2.999581e+002 2.936872e+002 2.981916e+002 2.977233e+002 3.001609e+002 2.941367e+002 2.976075e+002 
1.900000e+000 3.002127e+002 2.980364e+002 2.994837e+002 2.959776e+002 2.990612e+002 2.948345e+002 2.923816e+002 2.980680e+002 2.985395e+002 2.996294e+002 2.964040e+002 2.964521e+002 2.964402e+002 2.966132e+002 2.990677e+002 2.996216e+002 2.942443e+002 2.971648e+002 3.016857e+002 2.942919e+002 
1.950000e+000 3.007505e+002 3.010995e+002 2.997267e+002 2.970411e+002 2.973517e+002 2.968666e+002 2.995891e+002 2.994399e+002 2.975516e+002 2.965780e+002 2.976999e+002 2.920630e+002 2.964443e+002 2.971946e+002 2.946251e+002 2.991739e+002 3.001435e+002 2.978309e+002 2.986260e+002 3.007345e+002 
2.000000e+000 2.952892e+002 2.981365e+002 3.002048e+002 2.962103e+002 2.976591e+002 2.970965e+002 2.982928e+002 2.961033e+002 3.012183e+002 2.953946e+002 3.013460e+002 2.972014e+002 2.963807e+002 3.017489e+002 2.983019e+002 2.972591e+002 2.996706e+002 3.014998e+002 3.009610e+002 2.988736e+002 
2.050000e+000 3.003612e+002 2.924359e+002 2.972922e+002 2.996480e+002 2.971675e+002 2.948086e+002 2.930404e+002 2.971497e+002 2.949831e+002 2.996015e+002 2.943239e+002 2.983605e+002 3.013822e+002 2.985578e+002 3.004300e+002 2.941294e+002 2.976482e+002 3.017685e+002 2.988219e+002 3.028067e+002 
2.100000e+000 3.061503e+002 2.987744e+002 2.976282e+002 2.982449e+002 2.986989e+002 2.941962e+002 2.989364e+002 2.978579e+002 3.000171e+002 3.020615e+002 2.976940e+002 2.964219e+002 2.972138e+002 2.963710e+002 2.985651e+002 2.952477e+002 2.991652e+002 2.980391e+002 2.985047e+002 2.984415e+002 
2.150000e+000 3.063106e+002 2.991801e+002 2.977375e+002 2.984575e+002 2.943676e+002 2.985287e+002 2.982392e+002 2.984049e+002 2.972133e+002 2.978624e+002 2.946911e+002 2.963363e+002 2.959261e+002 2.986136e+002 2.997599e+002 2.954917e+002 3.004534e+002 2.957956e+002 2.941454e+002 2.990641e+002 
2.200000e+000 3.006145e+002 2.982159e+002 2.969859e+002 2.976867e+002 2.956208e+002 2.922444e+002 2.997311e+002 2.973461e+002 2.978363e+002 3.015744e+002 2.983930e+002 2.940946e+002 3.004598e+002 2.920411e+002 2.975063e+002 2.955018e+002 2.975850e+002 2.969130e+002 2.976812e+002 3.040390e+002 
2.250000e+000 3.011481e+002 2.973431e+002 2.982242e+002 3.003740e+002 2.989708e+002 2.954874e+002 3.018794e+002 2.972999e+002 2.954148e+002 2.961431e+002 2.937458e+002 3.041137e+002 2.983495e+002 2.974788e+002 2.956652e+002 2.918364e+002 2.994523e+002 2.969217e+002 3.012334e+002 2.954656e+002 
2.300000e+000 3.075911e+002 3.033453e+002 2.930729e+002 2.969256e+002 2.938430e+002 3.012314e+002 2.971360e+002 2.957705e+002 2.973429e+002 2.993630e+002 2.978885e+002 2.999022e+002 2.963280e+002 2.984223e+002 2.982859e+002 3.010004e+002 2.948586e+002 2.986791e+002 2.989212e+002 2.952770e+002 
2.350000e+000 3.084992e+002 2.949206e+002 3.007738e+002 2.953798e+002 2.994653e+002 2.988575e+002 2.959308e+002 3.004149e+002 3.001751e+002 2.950490e+002 3.007862e+002 2.990828e+002 2.991895e+002 3.025229e+002 2.976276e+002 2.980025e+002 2.951996e+002 3.011368e+002 2.974061e+002 2.961637e+002 
2.400000e+000 3.030364e+002 2.939868e+002 3.039073e+002 2.980513e+002 2.971336e+002 2.967509e+002 2.970221e+002 2.966018e+002 2.957210e+002 2.939985e+002 2.964237e+002 2.988599e+002 3.017424e+002 2.963445e+002 2.950014e+002 2.999444e+002 2.979467e+002 2.981797e+002 2.975013e+002 2.956070e+002 
2.450000e+000 3.043191e+002 3.023292e+002 3.038755e+002 2.998584e+002 2.957241e+002 2.968811e+002 3.015110e+002 2.970293e+002 2.994994e+002 2.985994e+002 2.960012e+002 2.944155e+002 2.963179e+002 2.966924e+002 2.953946e+002 2.979439e+002 2.973250e+002 3.003952e+002 3.004072e+002 2.992170e+002 
2.500000e+000 3.014165e+002 3.050560e+002 2.964529e+002 3.008333e+002 2.988243e+002 2.986654e+002 2.989201e+002 2.991881e+002 3.002840e+002 3.000034e+002 3.016683e+002 3.001293e+002 2.945025e+002 2.948650e+002 2.953228e+002 2.968659e+002 3.000359e+002 2.983495e+002 2.978148e+002 2.987835e+002 
2.550000e+000 3.002990e+002 3.010061e+002 2.975194e+002 2.971529e+002 2.961608e+002 2.958739e+002 2.992034e+002 2.993712e+002 2.998070e+002 2.935476e+002 2.964191e+002 2.979860e+002 3.013845e+002 2.947309e+002 2.994916e+002 2.997068e+002 2.989345e+002 2.952596e+002 2.991126e+002 3.000011e+002 
2.600000e+000 3.073137e+002 3.010694e+002 3.009773e+002 2.951908e+002 2.957531e+002 2.949540e+002 2.975152e+002 2.965871e+002 2.974202e+002 2.963761e+002 3.003106e+002 3.020258e+002 3.013515e+002 2.963848e+002 2.928426e+002 3.004351e+002 2.949117e+002 2.994724e+002 2.983197e+002 3.012728e+002 
2.650000e+000 2.997962e+002 2.990494e+002 3.014271e+002 2.996764e+002 3.022858e+002 2.967223e+002 3.024106e+002 3.025138e+002 2.973690e+002 2.954395e+002 2.997745e+002 2.983239e+002 3.002346e+002 2.956217e+002 2.955388e+002 2.989707e+002 2.974486e+002 2.999567e+002 2.925094e+002 3.020670e+002 
2.700000e+000 3.069562e+002 2.973225e+002 2.994092e+002 2.937879e+002 2.972798e+002 2.937431e+002 2.970740e+002 3.011433e+002 2.972536e+002 3.020363e+002 2.992989e+002 2.971264e+002 2.996555e+002 3.030288e+002 2.958396e+002 2.984392e+002 3.031908e+002 2.994976e+002 2.945162e+002 2.974898e+002 
2.750000e+000 3.031696e+002 2.972658e+002 3.013662e+002 2.949812e+002 2.956568e+002 2.973561e+002 2.976069e+002 2.957618e+002 2.946769e+002 2.954102e+002 2.977654e+002 3.002735e+002 2.970105e+002 2.951955e+002 2.991359e+002 2.997027e+002 2.984498e+002 2.975965e+002 2.981243e+002 2.979636e+002 
2.800000e+000 3.032848e+002 3.023000e+002 2.978943e+002 2.950836e+002 2.997112e+002 2.998205e+002 2.983055e+002 2.983601e+002 2.960259e+002 2.976015e+002 2.951685e+002 3.000080e+002 2.979403e+002 3.042688e+002 2.972751e+002 2.958428e+002 2.993589e+002 2.964553e+002 2.983486e+002 2.973543e+002 
2.850000e+000 3.024822e+002 2.985820e+002 2.943404e+002 2.985423e+002 2.962627e+002 2.939982e+002 3.032605e+002 2.962370e+002 3.031725e+002 2.967693e+002 3.006273e+002 2.992568e+002 3.019036e+002 2.996958e+002 3.008905e+002 3.025174e+002 2.965235e+002 2.941518e+002 2.938259e+002 3.027738e+002 
2.900000e+000 3.004143e+002 3.010222e+002 2.997805e+002 2.947293e+002 2.927294e+002 3.016720e+002 2.990848e+002 2.977009e+002 2.936318e+002 2.977636e+002 2.958139e+002 2.953658e+002 2.977219e+002 3.004882e+002 2.929044e+002 2.937764e+002 2.989002e+002 3.012993e+002 2.964740e+002 2.959714e+002 
2.950000e+000 3.075880e+002 3.005366e+002 3.024936e+002 2.973299e+002 3.010938e+002 2.982043e+002 2.954099e+002 3.023188e+002 2.976423e+002 2.973118e+002 3.015868e+002 2.993282e+002 2.920434e+002 2.989606e+002 2.948371e+002 2.983152e+002 3.023412e+002 3.001673e+002 2.966462e+002 2.987327e+002 
3.000000e+000 3.026569e+002 3.005592e+002 3.004569e+002 3.000570e+002 2.982301e+002 3.005769e+002 2.971728e+002 2.973599e+002 3.002662e+002 2.955210e+002 2.958263e+002 3.020203e+002 3.000080e+002 2.978922e+002 2.938799e+002 2.970993e+002 2.966901e+002 2.979664e+002 2.973406e+002 3.010512e+002 
3.050000e+000 3.018737e+002 2.999819e+002 3.015806e+002 2.982175e+002 3.002653e+002 2.962254e+002 2.962148e+002 2.972812e+002 3.016211e+002 2.948536e+002 2.979975e+002 3.029162e+002 2.947162e+002 2.987061e+002 2.958400e+002 2.928591e+002 2.985111e+002 3.005843e+002 2.992861e+002 2.957554e+002 
3.100000e+000 3.098680e+002 3.061533e+002 2.958076e+002 2.976983e+002 2.953548e+002 2.947488e+002 2.989689e+002 2.963711e+002 2.982918e+002 3.008352e+002 3.021068e+002 2.990815e+002 2.981225e+002 3.000107e+002 2.960529e+002 2.965642e+002 3.007724e+002 2.967098e+002 3.009546e+002 2.999036e+002 
3.150000e+000 3.007222e+002 3.011439e+002 2.940016e+002 2.948597e+002 2.999940e+002 2.950891e+002 2.935086e+002 2.982256e+002 2.953942e+002 2.988128e+002 3.006214e+002 2.949291e+002 2.966338e+002 2.946476e+002 2.964328e+002 2.960772e+002 2.999860e+002 2.983445e+002 2.964983e+002 2.963710e+002 
3.200000e+000 3.003910e+002 3.009722e+002 3.009012e+002 3.008135e+002 2.923871e+002 2.978810e+002 2.937820e+002 3.002224e+002 3.027839e+002 2.949044e+002 2.984910e+002 2.978116e+002 2.996390e+002 2.960264e+002 3.006672e+002 2.994312e+002 2.962209e+002 3.015287e+002 2.991300e+002 3.003353e+002 
3.250000e+000 3.019031e+002 2.995972e+002 2.961396e+002 2.970532e+002 2.974232e+002 2.986601e+002 2.974846e+002 2.991274e+002 2.988595e+002 3.006012e+002 2.987395e+002 3.020244e+002 2.994477e+002 3.006585e+002 2.969890e+002 3.001014e+002 2.933677e+002 2.967304e+002 2.996230e+002 2.968389e+002 
3.300000e+000 3.066144e+002 2.997719e+002 2.987907e+002 2.994537e+002 2.974624e+002 2.996568e+002 3.023241e+002 2.974671e+002 2.964965e+002 2.973269e+002 2.962374e+002 2.958135e+002 3.010137e+002 2.930024e+002 2.995768e+002 2.958414e+002 2.978011e+002 3.001732e+002 2.983783e+002 2.955416e+002 
3.350000e+000 3.037818e+002 3.000534e+002 3.024436e+002 2.998826e+002 2.990204e+002 2.959189e+002 2.941421e+002 3.000238e+002 2.979311e+002 2.995768e+002 2.987331e+002 2.995374e+002 2.977741e+002 3.013002e+002 2.933530e+002 2.953901e+002 2.983179e+002 2.942154e+002 2.995443e+002 3.023929e+002 
3.400000e+000 3.049762e+002 2.982900e+002 2.992115e+002 2.982491e+002 2.939352e+002 2.946117e+002 2.969971e+002 2.945933e+002 2.974638e+002 2.940378e+002 2.993085e+002 3.004543e+002 3.013923e+002 2.989570e+002 2.985674e+002 3.008040e+002 2.943734e+002 2.978826e+002 2.966965e+002 3.015342e+002 
3.450000e+000 3.042459e+002 2.965783e+002 2.945012e+002 2.972746e+002 2.993846e+002 2.984515e+002 3.001950e+002 2.970245e+002 2.997988e+002 2.976491e+002 3.040496e+002 2.980735e+002 2.992811e+002 2.994349e+002 3.014293e+002 3.001430e+002 2.967945e+002 2.958936e+002 2.944626e+002 2.996596e+002 
3.500000e+000 3.010153e+002 2.970515e+002 2.972859e+002 2.967648e+002 2.962856e+002 2.992758e+002 2.977065e+002 3.045164e+002 3.015658e+002 2.985592e+002 3.002396e+002 2.939719e+002 2.972175e+002 2.958579e+002 2.958570e+002 2.975228e+002 2.984067e+002 2.949126e+002 2.928019e+002 2.966837e+002 
3.550000e+000 3.040955e+002 2.998545e+002 2.955177e+002 2.942794e+002 2.983327e+002 2.979852e+002 2.971088e+002 2.965302e+002 2.986356e+002 2.975333e+002 2.973420e+002 2.984626e+002 2.982003e+002 2.953122e+002 2.955013e+002 3.013575e+002 2.973438e+002 2.977366e+002 2.978895e+002 2.964754e+002 
3.600000e+000 3.018452e+002 2.963726e+002 2.970380e+002 2.934194e+002 2.946635e+002 2.952613e+002 3.003645e+002 2.932531e+002 2.966943e+002 2.953438e+002 2.990087e+002 2.983770e+002 3.020707e+002 2.992344e+002 2.971195e+002 2.974743e+002 2.994111e+002 2.973786e+002 2.991295e+002 3.015882e+002 
3.650000e+000 3.084319e+002 3.019381e+002 2.949763e+002 2.984675e+002 3.000447e+002 2.978171e+002 2.941724e+002 2.936555e+002 2.997059e+002 3.017017e+002 3.021517e+002 3.006891e+002 2.971122e+002 3.011089e+002 3.014884e+002 2.995795e+002 2.996669e+002 3.015113e+002 2.938932e+002 3.015104e+002 
3.700000e+000 3.013471e+002 3.018401e+002 2.982682e+002 3.034535e+002 2.968262e+002 2.994959e+002 2.978379e+002 2.984401e+002 2.972157e+002 3.010897e+002 2.952697e+002 2.955585e+002 2.971177e+002 2.927781e+002 2.966869e+002 2.957778e+002 2.958927e+002 2.922905e+002 2.977828e+002 2.982575e+002 
3.750000e+000 3.002285e+002 3.019237e+002 3.046235e+002 2.948745e+002 3.015233e+002 2.945782e+002 2.942557e+002 2.997664e+002 2.982429e+002 3.029688e+002 2.992280e+002 3.011066e+002 2.991071e+002 2.983211e+002 2.977704e+002 3.036930e+002 3.005829e+002 3.001915e+002 2.968270e+002 2.960076e+002 
3.800000e+000 3.036421e+002 3.011669e+002 3.015967e+002 2.975554e+002 2.962214e+002 2.983235e+002 2.945173e+002 2.971933e+002 2.966801e+002 2.996294e+002 2.968860e+002 2.999210e+002 3.017159e+002 3.000153e+002 2.988778e+002 2.930477e+002 3.023430e+002 2.989364e+002 3.022460e+002 2.960950e+002 
3.850000e+000 3.060870e+002 2.999508e+002 3.025222e+002 3.013411e+002 3.001663e+002 2.950097e+002 3.006603e+002 2.987140e+002 3.006956e+002 2.965748e+002 2.968009e+002 2.984214e+002 2.994486e+002 2.984690e+002 2.966187e+002 3.012037e+002 2.987995e+002 2.987189e+002 2.978528e+002 2.985221e+002 
3.900000e+000 3.020411e+002 3.020284e+002 2.999534e+002 2.966669e+002 2.953507e+002 2.975698e+002 2.958890e+002 2.971687e+002 3.005482e+002 3.021622e+002 2.950408e+002 2.988050e+002 2.984383e+002 2.942191e+002 2.975855e+002 2.969684e+002 2.935860e+002 2.997722e+002 2.972966e+002 2.994985e+002 
3.950000e+000 3.058755e+002 3.002089e+002 3.012973e+002 3.040266e+002 2.981956e+002 2.984264e+002 2.980521e+002 2.979840e+002 2.943799e+002 2.998208e+002 2.969826e+002 3.017136e+002 2.974770e+002 2.953200e+002 2.972449e+002 2.965500e+002 3.006077e+002 2.956739e+002 2.983399e+002 2.950252e+002 
4.000000e+000 3.018137e+002 3.007002e+002 2.969120e+002 2.989639e+002 2.990663e+002 3.000042e+002 3.005990e+002 2.981814e+002 2.982031e+002 2.981014e+002 2.974413e+002 2.995264e+002 3.000533e+002 2.977201e+002 2.991103e+002 2.948833e+002 3.006727e+002 2.982323e+002 2.998894e+002 3.012320e+002 
4.050000e+000 3.070082e+002 3.016811e+002 3.005037e+002 2.987884e+002 3.049892e+002 2.969677e+002 2.945195e+002 2.995342e+002 2.985964e+002 2.990737e+002 3.017333e+002 2.983225e+002 2.976844e+002 2.999357e+002 2.984543e+002 2.951360e+002 2.967505e+002 2.996290e+002 2.942063e+002 2.972390e+002 
4.100000e+000 2.998916e+002 3.019807e+002 3.008414e+002 2.977304e+002 2.988049e+002 2.957762e+002 2.931458e+002 2.980163e+002 2.986463e+002 2.972289e+002 2.992902e+002 2.980135e+002 2.963312e+002 2.967647e+002 2.979563e+002 3.006946e+002 2.942708e+002 2.973072e+002 2.994486e+002 2.969790e+002 
4.150000e+000 3.046741e+002 3.012259e+002 2.982264e+002 3.010078e+002 3.006899e+002 2.987853e+002 2.940495e+002 2.981281e+002 2.961885e+002 3.016106e+002 2.934711e+002 3.013488e+002 2.943409e+002 2.967583e+002 2.986731e+002 3.013666e+002 2.960296e+002 2.982749e+002 3.010833e+002 2.968796e+002 
4.200000e+000 3.061745e+002 3.051138e+002 2.977309e+002 3.017817e+002 3.000782e+002 2.986222e+002 2.945063e+002 2.944348e+002 2.983913e+002 2.945093e+002 3.026053e+002 3.013991e+002 2.996619e+002 3.000510e+002 2.928573e+002 2.966192e+002 2.980941e+002 3.024003e+002 2.962639e+002 3.021444e+002 
4.250000e+000 3.005991e+002 3.018766e+002 2.984677e+002 2.980505e+002 3.014749e+002 3.001122e+002 3.042994e+002 2.992773e+002 3.001881e+002 2.984026e+002 2.983944e+002 3.011405e+002 2.967373e+002 3.025303e+002 3.005825e+002 2.961879e+002 2.945084e+002 2.995626e+002 2.947588e+002 2.964457e+002 
4.300000e+000 3.070479e+002 3.017427e+002 2.995953e+002 2.995085e+002 2.976755e+002 2.985802e+002 2.977077e+002 3.002076e+002 2.995326e+002 2.988659e+002 2.972733e+002 2.992156e+002 3.000744e+002 3.009482e+002 2.978363e+002 2.990165e+002 2.968508e+002 2.982584e+002 2.993799e+002 2.965761e+002 
4.350000e+000 3.093624e+002 2.974613e+002 2.998257e+002 2.980464e+002 2.975434e+002 2.968249e+002 3.049365e+002 2.954367e+002 2.965873e+002 2.982259e+002 2.936071e+002 2.966832e+002 2.959215e+002 2.974610e+002 2.984379e+002 3.018482e+002 3.007596e+002 2.970687e+002 2.949982e+002 2.986745e+002 
4.400000e+000 3.054669e+002 3.025538e+002 2.959033e+002 3.000823e+002 3.008313e+002 3.005429e+002 2.988899e+002 2.969859e+002 2.974905e+002 2.978625e+002 3.023760e+002 2.998661e+002 2.963317e+002 3.011542e+002 2.992151e+002 2.950019e+002 2.923766e+002 2.998221e+002 2.951017e+002 2.970005e+002 
4.450000e+000 3.075475e+002 3.042159e+002 3.013478e+002 2.982821e+002 2.981007e+002 2.973976e+002 2.958755e+002 3.007793e+002 2.965325e+002 2.973356e+002 2.980011e+002 2.985431e+002 2.996633e+002 2.966375e+002 2.973928e+002 2.974404e+002 2.943821e+002 2.980945e+002 2.971392e+002 2.972266e+002 
4.500000e+000 3.057987e+002 2.993252e+002 3.012108e+002 3.005454e+002 3.030323e+002 2.989405e+002 2.980887e+002 3.033344e+002 2.950882e+002 2.932089e+002 2.941710e+002 3.001357e+002 2.961596e+002 2.982607e+002 2.936739e+002 2.993667e+002 2.971232e+002 3.004264e+002 2.984781e+002 2.993511e+002 
4.550000e+000 3.029018e+002 3.004447e+002 2.998141e+002 2.987469e+002 2.956922e+002 2.946083e+002 2.995628e+002 2.987415e+002 2.982331e+002 2.963317e+002 2.938163e+002 2.978762e+002 2.975631e+002 3.012746e+002 2.976935e+002 2.979540e+002 2.951072e+002 2.967153e+002 2.988411e+002 2.973919e+002 
4.600000e+000 3.039301e+002 2.994353e+002 2.966244e+002 2.974943e+002 2.943695e+002 3.012295e+002 2.996921e+002 2.987247e+002 2.994298e+002 2.953375e+002 3.002378e+002 3.025188e+002 2.956734e+002 3.016239e+002 2.935590e+002 2.994916e+002 2.989464e+002 2.944100e+002 2.991959e+002 2.978281e+002 
4.650000e+000 3.009545e+002 2.977286e+002 3.040829e+002 3.004432e+002 2.962828e+002 3.018024e+002 3.019618e+002 2.927478e+002 2.991268e+002 2.952999e+002 2.988535e+002 3.002904e+002 3.011853e+002 2.967276e+002 2.980835e+002 2.975214e+002 2.951053e+002 2.998249e+002 2.995635e+002 2.987844e+002 
4.700000e+000 3.041277e+002 2.964285e+002 3.004730e+002 2.976335e+002 2.988282e+002 2.978470e+002 2.954571e+002 3.001264e+002 2.945408e+002 2.984242e+002 2.954853e+002 2.970078e+002 2.976024e+002 3.005344e+002 3.027111e+002 3.005971e+002 2.982442e+002 3.003508e+002 2.979522e+002 2.955233e+002 
4.750000e+000 3.068016e+002 3.022283e+002 2.947080e+002 2.940549e+002 3.037568e+002 3.002766e+002 3.027422e+002 2.926139e+002 2.975544e+002 2.984750e+002 2.960103e+002 2.979421e+002 2.959165e+002 3.005687e+002 3.017205e+002 2.994898e+002 3.021416e+002 3.006617e+002 3.009725e+002 2.990041e+002 
4.800000e+000 3.047157e+002 3.017904e+002 2.956585e+002 3.014350e+002 2.967716e+002 2.997535e+002 2.934151e+002 2.955555e+002 2.996840e+002 2.962906e+002 2.987963e+002 2.997626e+002 2.989679e+002 2.955860e+002 2.969442e+002 2.986553e+002 3.027372e+002 2.964566e+002 3.006081e+002 2.999787e+002 
4.850000e+000 3.053601e+002 3.001860e+002 2.999636e+002 2.965092e+002 2.982271e+002 2.958688e+002 3.004486e+002 2.999589e+002 2.954899e+002 2.986320e+002 3.007844e+002 2.967501e+002 2.960488e+002 3.002707e+002 3.007564e+002 3.007843e+002 2.963308e+002 2.993662e+002 2.981389e+002 3.008439e+002 
4.900000e+000 3.079939e+002 2.996977e+002 2.981545e+002 2.988900e+002 2.974503e+002 2.956435e+002 2.982051e+002 3.000937e+002 2.929612e+002 2.982581e+002 2.953081e+002 2.969748e+002 2.936858e+002 2.961147e+002 2.971012e+002 2.991845e+002 2.973291e+002 2.990091e+002 2.991396e+002 2.985839e+002 
4.950000e+000 3.040685e+002 3.069137e+002 2.970129e+002 2.912493e+002 2.979607e+002 2.943723e+002 2.970154e+002 2.956393e+002 2.930793e+002 2.939574e+002 2.958428e+002 2.967862e+002 2.978400e+002 2.991707e+002 3.007518e+002 2.949547e+002 2.997887e+002 2.959028e+002 2.987592e+002 3.002950e+002 
5.000000e+000 3.062226e+002 3.064274e+002 2.955777e+002 3.012667e+002 2.967821e+002 3.007734e+002 3.001673e+002 3.011293e+002 2.978064e+002 2.989369e+002 2.990929e+002 2.998761e+002 2.949305e+002 3.001668e+002 2.940960e+002 2.981650e+002 2.966297e+002 2.999398e+002 2.987771e+002 2.992847e+002 