TITLE="T"
VARIABLES="t","T1","T2","T3","T4","T5","T6","T7","T8","T9","T10","T11","T12","T13","T14","T15","T16","T17","T18","T19","T20" 
ZONE T="0", I=12000 F=POINT 
0.000000e+000 2.986443e+002 2.989748e+002 2.985532e+002 2.975311e+002 2.994621e+002 2.982707e+002 2.981198e+002 2.982871e+002 2.976033e+002 2.979407e+002 2.974604e+002 2.977317e+002 2.974735e+002 2.986131e+002 2.983655e+002 2.972702e+002 2.979324e+002 2.985409e+002 2.972312e+002 2.981459e+002 
5.000000e-002 2.982974e+002 2.990222e+002 2.977007e+002 2.974326e+002 2.976285e+002 2.982195e+002 2.993470e+002 2.982537e+002 2.964482e+002 2.976936e+002 2.977813e+002 2.976497e+002 2.974579e+002 2.987180e+002 2.993550e+002 2.983044e+002 2.976355e+002 2.981653e+002 2.978616e+002 2.978310e+002 
1.000000e-001 2.972682e+002 2.987868e+002 2.974270e+002 2.978745e+002 2.981443e+002 2.979207e+002 2.981937e+002 2.986610e+002 2.982799e+002 2.975551e+002 2.981594e+002 2.985115e+002 2.980362e+002 2.976798e+002 2.982699e+002 2.975815e+002 2.975073e+002 2.979987e+002 2.974138e+002 2.976677e+002 
1.500000e-001 2.990518e+002 2.981127e+002 2.983224e+002 2.986525e+002 2.988545e+002 2.977485e+002 2.986608e+002 2.982837e+002 2.979608e+002 2.979076e+002 2.962568e+002 2.993633e+002 2.986370e+002 2.986796e+002 2.979350e+002 2.985574e+002 2.969095e+002 2.981960e+002 2.975804e+002 2.977821e+002 
2.000000e-001 2.998664e+002 2.974497e+002 2.969150e+002 2.982051e+002 2.971014e+002 2.963811e+002 2.979033e+002 2.983449e+002 2.978917e+002 2.960435e+002 2.967776e+002 2.981542e+002 2.968848e+002 2.973482e+002 2.973331e+002 2.972280e+002 2.978057e+002 2.980340e+002 2.981908e+002 2.974649e+002 
2.500000e-001 2.989188e+002 2.981987e+002 2.978386e+002 2.990810e+002 2.979545e+002 2.984111e+002 2.986558e+002 2.979880e+002 2.969878e+002 2.992172e+002 2.973152e+002 2.979186e+002 2.987669e+002 2.972084e+002 2.986094e+002 2.978430e+002 2.979352e+002 2.980137e+002 2.976782e+002 2.987565e+002 
3.000000e-001 2.998664e+002 2.994408e+002 2.980168e+002 2.976079e+002 2.975867e+002 2.979591e+002 2.990022e+002 2.985833e+002 2.982971e+002 2.968883e+002 2.977906e+002 2.973086e+002 2.983817e+002 2.985655e+002 2.976220e+002 2.977923e+002 2.979140e+002 2.985497e+002 2.976941e+002 2.982685e+002 
3.500000e-001 2.992731e+002 2.983729e+002 2.973404e+002 2.980713e+002 2.979690e+002 2.984138e+002 2.977729e+002 2.982268e+002 2.981502e+002 2.986185e+002 2.976809e+002 2.985666e+002 2.981143e+002 2.980882e+002 2.968579e+002 2.975908e+002 2.998639e+002 2.987691e+002 2.984101e+002 2.981061e+002 
4.000000e-001 2.982969e+002 2.964513e+002 2.988752e+002 2.980838e+002 2.976235e+002 2.981465e+002 2.971985e+002 2.973541e+002 2.969701e+002 2.981739e+002 2.973682e+002 2.973903e+002 2.976235e+002 2.974527e+002 2.976179e+002 2.977413e+002 2.978626e+002 2.972188e+002 2.968810e+002 2.970425e+002 
4.500000e-001 3.001333e+002 2.975458e+002 2.991869e+002 2.978599e+002 2.987951e+002 2.977431e+002 2.981749e+002 2.981471e+002 2.996674e+002 2.982470e+002 2.970039e+002 2.979396e+002 2.971365e+002 2.975566e+002 2.988210e+002 2.993821e+002 2.979613e+002 2.972644e+002 2.994434e+002 2.986888e+002 
5.000000e-001 2.997915e+002 2.976522e+002 2.982533e+002 2.983363e+002 2.983996e+002 2.975653e+002 2.984307e+002 2.982324e+002 2.982994e+002 2.976812e+002 2.985962e+002 2.983836e+002 2.982357e+002 2.965409e+002 2.986734e+002 2.985359e+002 2.987003e+002 2.979179e+002 2.982983e+002 2.960180e+002 
5.500000e-001 2.994144e+002 2.978108e+002 2.984817e+002 2.977217e+002 2.968911e+002 2.990579e+002 2.986204e+002 2.978011e+002 2.988337e+002 2.982398e+002 2.995708e+002 2.974488e+002 2.989925e+002 2.970953e+002 2.973745e+002 2.977758e+002 2.977003e+002 2.979723e+002 2.974957e+002 2.970438e+002 
6.000000e-001 2.991080e+002 2.986711e+002 2.984225e+002 2.978308e+002 2.989614e+002 2.972369e+002 2.980144e+002 2.976841e+002 2.978836e+002 2.978910e+002 2.978811e+002 2.974562e+002 2.982339e+002 2.985885e+002 2.978883e+002 2.990046e+002 2.974979e+002 2.997792e+002 2.995607e+002 2.984228e+002 
6.500000e-001 2.982203e+002 2.986477e+002 2.982285e+002 2.964970e+002 2.974988e+002 2.981601e+002 2.986428e+002 2.973118e+002 2.982155e+002 2.982651e+002 2.977332e+002 2.986267e+002 2.989055e+002 2.986174e+002 2.974616e+002 2.981908e+002 2.973068e+002 2.975006e+002 2.964105e+002 2.974490e+002 
7.000000e-001 3.000312e+002 2.970573e+002 2.979631e+002 2.979519e+002 2.976080e+002 2.975050e+002 2.986253e+002 2.985210e+002 2.980428e+002 2.980113e+002 2.974031e+002 2.982857e+002 2.982788e+002 2.979538e+002 2.980946e+002 2.978511e+002 2.984781e+002 2.979786e+002 2.976455e+002 2.990365e+002 
7.500000e-001 3.004071e+002 2.964810e+002 2.980017e+002 2.979994e+002 2.980468e+002 2.983604e+002 2.978728e+002 2.981298e+002 2.988823e+002 2.981547e+002 2.986689e+002 2.982698e+002 2.986539e+002 2.987703e+002 2.972913e+002 2.983270e+002 2.972514e+002 2.972699e+002 2.988637e+002 2.986377e+002 
8.000000e-001 2.996674e+002 2.984638e+002 2.979779e+002 2.972264e+002 2.983107e+002 2.976944e+002 2.984103e+002 2.974277e+002 2.970235e+002 2.983586e+002 2.962770e+002 2.982249e+002 2.986657e+002 2.957983e+002 2.975483e+002 2.978572e+002 2.974160e+002 2.988103e+002 2.980579e+002 2.984463e+002 
8.500000e-001 3.007171e+002 2.975424e+002 2.980281e+002 2.976272e+002 2.980495e+002 2.982746e+002 2.977052e+002 2.981178e+002 2.974910e+002 2.986738e+002 2.973039e+002 2.984309e+002 2.979241e+002 2.984752e+002 2.981706e+002 2.983287e+002 2.977335e+002 2.984137e+002 2.972857e+002 2.985644e+002 
9.000000e-001 3.019979e+002 2.983625e+002 2.980084e+002 2.974859e+002 2.969171e+002 2.981132e+002 2.969555e+002 2.971775e+002 2.968723e+002 2.975307e+002 2.967384e+002 2.972586e+002 2.973067e+002 2.975018e+002 2.984066e+002 2.983146e+002 2.987738e+002 2.964386e+002 2.980245e+002 2.978469e+002 
9.500000e-001 3.003924e+002 2.979874e+002 2.990577e+002 2.976970e+002 2.976055e+002 2.972862e+002 2.994139e+002 2.984530e+002 2.970392e+002 2.978526e+002 2.971367e+002 2.971202e+002 2.978522e+002 2.977722e+002 2.992156e+002 2.979439e+002 2.987279e+002 2.989676e+002 2.972699e+002 2.977552e+002 
1.000000e+000 2.994617e+002 2.995156e+002 2.985118e+002 2.983564e+002 2.980878e+002 2.986479e+002 2.976171e+002 2.984376e+002 2.988440e+002 2.974941e+002 2.975642e+002 2.978252e+002 2.981753e+002 2.978670e+002 2.979925e+002 2.981106e+002 2.979056e+002 2.970355e+002 2.987537e+002 2.981441e+002 
1.050000e+000 3.009597e+002 2.981519e+002 2.979377e+002 2.980004e+002 2.990026e+002 2.977781e+002 2.971750e+002 2.978840e+002 2.982584e+002 2.989196e+002 2.978923e+002 2.979690e+002 2.990126e+002 2.979958e+002 2.985104e+002 2.976204e+002 2.991163e+002 2.977051e+002 2.989611e+002 2.983556e+002 
1.100000e+000 2.999301e+002 2.982363e+002 2.975815e+002 2.989554e+002 2.984688e+002 2.983025e+002 2.983408e+002 2.987903e+002 2.977376e+002 2.976801e+002 2.996796e+002 2.991152e+002 2.971468e+002 2.973809e+002 2.974915e+002 2.981244e+002 2.972755e+002 2.976698e+002 2.971247e+002 2.977376e+002 
1.150000e+000 3.013508e+002 2.984324e+002 2.977106e+002 2.975877e+002 2.995058e+002 2.992253e+002 2.990484e+002 2.978031e+002 2.987724e+002 2.972993e+002 2.973623e+002 2.967873e+002 2.979333e+002 2.989338e+002 2.979396e+002 2.990570e+002 2.984489e+002 2.969083e+002 2.979199e+002 2.964481e+002 
1.200000e+000 3.018987e+002 2.982687e+002 2.978178e+002 2.975128e+002 2.994878e+002 2.986789e+002 2.978204e+002 2.991071e+002 2.969396e+002 2.977791e+002 2.968227e+002 2.982138e+002 2.979366e+002 2.978527e+002 2.976186e+002 2.973152e+002 2.965223e+002 2.988839e+002 2.981016e+002 2.968961e+002 
1.250000e+000 3.019967e+002 2.992717e+002 2.978220e+002 2.987008e+002 2.982170e+002 2.975212e+002 2.971630e+002 2.981947e+002 2.971801e+002 2.975005e+002 2.978577e+002 2.986345e+002 2.987136e+002 2.982779e+002 2.983724e+002 2.983474e+002 2.980583e+002 2.976326e+002 2.974378e+002 2.984855e+002 
1.300000e+000 3.010647e+002 2.989078e+002 2.985523e+002 2.968897e+002 2.980352e+002 2.971379e+002 2.987743e+002 2.993952e+002 2.971865e+002 2.977706e+002 2.992433e+002 2.987794e+002 2.980523e+002 2.985043e+002 2.985186e+002 2.970451e+002 2.973005e+002 2.986739e+002 2.964123e+002 2.978344e+002 
1.350000e+000 3.021174e+002 2.994915e+002 2.975916e+002 2.986586e+002 2.986524e+002 2.977683e+002 2.982094e+002 2.979148e+002 2.971694e+002 2.972103e+002 2.973454e+002 2.995537e+002 2.978221e+002 2.982971e+002 2.986505e+002 2.981763e+002 2.976091e+002 2.992391e+002 2.990469e+002 2.976227e+002 
1.400000e+000 3.017761e+002 2.992473e+002 2.988265e+002 2.982658e+002 2.991497e+002 2.983856e+002 2.978298e+002 2.966672e+002 2.987819e+002 2.971173e+002 2.971267e+002 2.985118e+002 2.973898e+002 2.991951e+002 2.986966e+002 2.988019e+002 2.993876e+002 2.985572e+002 2.982794e+002 2.983959e+002 
1.450000e+000 3.020948e+002 2.980560e+002 2.965054e+002 2.979964e+002 2.970221e+002 2.978207e+002 2.978324e+002 2.982155e+002 2.963744e+002 2.980094e+002 2.986804e+002 2.979965e+002 2.978055e+002 2.975853e+002 2.976940e+002 2.973208e+002 2.986380e+002 2.981105e+002 2.971635e+002 2.962473e+002 
1.500000e+000 3.026700e+002 2.987034e+002 2.988381e+002 2.996884e+002 2.979507e+002 2.982499e+002 2.997010e+002 2.978550e+002 2.977710e+002 2.987116e+002 2.971328e+002 2.979903e+002 2.975200e+002 2.975248e+002 2.978430e+002 2.984229e+002 2.973037e+002 2.967906e+002 2.980727e+002 2.983430e+002 
1.550000e+000 3.028533e+002 2.980308e+002 2.972688e+002 2.968996e+002 2.978907e+002 2.986810e+002 2.963193e+002 2.984715e+002 2.990785e+002 2.982256e+002 2.971349e+002 2.980675e+002 2.973483e+002 2.975119e+002 2.984063e+002 2.979118e+002 2.980529e+002 2.968296e+002 2.994202e+002 2.976794e+002 
1.600000e+000 3.018472e+002 2.988173e+002 2.989572e+002 2.981637e+002 2.973787e+002 2.995287e+002 2.982534e+002 2.986510e+002 2.980387e+002 2.977545e+002 2.978545e+002 2.972504e+002 2.968498e+002 2.986881e+002 2.964033e+002 2.984467e+002 2.982544e+002 2.976059e+002 2.971569e+002 2.978957e+002 
1.650000e+000 3.016961e+002 2.974817e+002 2.974557e+002 2.978800e+002 2.972144e+002 2.977730e+002 2.972847e+002 2.983478e+002 2.969601e+002 2.973936e+002 2.965993e+002 2.970094e+002 2.975757e+002 2.979769e+002 2.988261e+002 2.981721e+002 2.975411e+002 2.977288e+002 2.983805e+002 2.979127e+002 
1.700000e+000 3.036749e+002 2.978829e+002 2.993225e+002 2.977923e+002 2.972489e+002 2.986032e+002 2.979653e+002 2.969902e+002 2.970492e+002 2.997418e+002 2.978644e+002 2.963632e+002 2.981444e+002 2.971791e+002 2.991985e+002 2.984185e+002 2.977571e+002 2.987769e+002 2.987279e+002 2.985127e+002 
1.750000e+000 3.015572e+002 2.994241e+002 2.977471e+002 2.984553e+002 2.973393e+002 2.976173e+002 2.963378e+002 2.983788e+002 2.981911e+002 2.981838e+002 2.982262e+002 2.977390e+002 2.973077e+002 2.989932e+002 2.980705e+002 2.969333e+002 2.971251e+002 2.975584e+002 2.975841e+002 2.988622e+002 
1.800000e+000 3.032569e+002 3.001670e+002 2.999451e+002 2.987112e+002 2.981092e+002 2.987399e+002 2.981529e+002 2.987438e+002 2.976621e+002 2.987198e+002 2.993293e+002 2.978850e+002 2.976481e+002 2.977286e+002 2.983346e+002 2.990517e+002 2.974580e+002 2.977606e+002 2.977547e+002 2.980104e+002 
1.850000e+000 3.031193e+002 2.987838e+002 2.984308e+002 2.970940e+002 2.984813e+002 2.973702e+002 2.983239e+002 2.972632e+002 2.968082e+002 2.982668e+002 2.981145e+002 2.981059e+002 2.980402e+002 2.985874e+002 2.967062e+002 2.980575e+002 2.979170e+002 2.986483e+002 2.968410e+002 2.978822e+002 
1.900000e+000 3.018401e+002 2.987893e+002 2.985991e+002 2.974158e+002 2.983207e+002 2.970505e+002 2.963145e+002 2.980204e+002 2.981618e+002 2.984888e+002 2.975212e+002 2.975356e+002 2.975321e+002 2.975840e+002 2.983203e+002 2.984865e+002 2.968733e+002 2.977494e+002 2.991057e+002 2.968876e+002 
1.950000e+000 3.020561e+002 2.997376e+002 2.986825e+002 2.977373e+002 2.978082e+002 2.976602e+002 2.984768e+002 2.984320e+002 2.978655e+002 2.975734e+002 2.979100e+002 2.962189e+002 2.975333e+002 2.977584e+002 2.969875e+002 2.983522e+002 2.986430e+002 2.979493e+002 2.981878e+002 2.988203e+002 
2.000000e+000 3.004713e+002 2.988780e+002 2.988366e+002 2.974907e+002 2.979009e+002 2.977292e+002 2.980878e+002 2.974310e+002 2.989655e+002 2.972184e+002 2.990038e+002 2.977604e+002 2.975142e+002 2.991247e+002 2.980906e+002 2.977777e+002 2.985012e+002 2.990499e+002 2.988883e+002 2.982621e+002 
2.050000e+000 3.020455e+002 2.971970e+002 2.979737e+002 2.985247e+002 2.977539e+002 2.970429e+002 2.965121e+002 2.977449e+002 2.970949e+002 2.984804e+002 2.968972e+002 2.981081e+002 2.990147e+002 2.981673e+002 2.987290e+002 2.968388e+002 2.978945e+002 2.991306e+002 2.982466e+002 2.994420e+002 
2.100000e+000 3.038338e+002 2.991275e+002 2.980856e+002 2.981067e+002 2.982138e+002 2.968592e+002 2.982809e+002 2.979574e+002 2.986051e+002 2.992185e+002 2.979082e+002 2.975266e+002 2.977641e+002 2.975113e+002 2.981695e+002 2.971743e+002 2.983496e+002 2.980117e+002 2.981514e+002 2.981325e+002 
2.150000e+000 3.039325e+002 2.992781e+002 2.981297e+002 2.981735e+002 2.969150e+002 2.981590e+002 2.980718e+002 2.981215e+002 2.977640e+002 2.979587e+002 2.970073e+002 2.975009e+002 2.973778e+002 2.981841e+002 2.985280e+002 2.972475e+002 2.987360e+002 2.973387e+002 2.968436e+002 2.983192e+002 
2.200000e+000 3.022734e+002 2.990175e+002 2.979156e+002 2.979454e+002 2.972915e+002 2.962739e+002 2.985194e+002 2.978038e+002 2.979509e+002 2.990723e+002 2.981179e+002 2.968284e+002 2.987379e+002 2.962123e+002 2.978519e+002 2.972505e+002 2.978755e+002 2.976739e+002 2.979044e+002 2.998117e+002 
2.250000e+000 3.024823e+002 2.987841e+002 2.982987e+002 2.987549e+002 2.982972e+002 2.972468e+002 2.991639e+002 2.977900e+002 2.972244e+002 2.974429e+002 2.967237e+002 2.998341e+002 2.981049e+002 2.978437e+002 2.972996e+002 2.961509e+002 2.984357e+002 2.976765e+002 2.989700e+002 2.972397e+002 
2.300000e+000 3.044631e+002 3.006131e+002 2.967651e+002 2.977238e+002 2.967595e+002 2.989701e+002 2.977409e+002 2.973311e+002 2.978029e+002 2.984089e+002 2.979666e+002 2.985707e+002 2.974984e+002 2.981267e+002 2.980858e+002 2.989001e+002 2.970576e+002 2.982037e+002 2.982764e+002 2.971831e+002 
2.350000e+000 3.047827e+002 2.981139e+002 2.990873e+002 2.972636e+002 2.984470e+002 2.982581e+002 2.973793e+002 2.987245e+002 2.986525e+002 2.971147e+002 2.988359e+002 2.983249e+002 2.983568e+002 2.993569e+002 2.978883e+002 2.980008e+002 2.971599e+002 2.989410e+002 2.978218e+002 2.974491e+002 
2.400000e+000 3.031902e+002 2.978617e+002 3.000394e+002 2.980688e+002 2.977483e+002 2.976262e+002 2.977067e+002 2.975805e+002 2.973163e+002 2.967995e+002 2.975271e+002 2.982580e+002 2.991227e+002 2.975033e+002 2.971004e+002 2.985833e+002 2.979840e+002 2.980539e+002 2.978504e+002 2.972821e+002 
2.450000e+000 3.036206e+002 3.003921e+002 3.000420e+002 2.986148e+002 2.973263e+002 2.976654e+002 2.990534e+002 2.977088e+002 2.984498e+002 2.981798e+002 2.974004e+002 2.969246e+002 2.974954e+002 2.976077e+002 2.972184e+002 2.979832e+002 2.977975e+002 2.987186e+002 2.987221e+002 2.983651e+002 
2.500000e+000 3.027946e+002 3.012378e+002 2.978275e+002 2.989112e+002 2.982573e+002 2.982009e+002 2.982761e+002 2.983565e+002 2.986852e+002 2.986010e+002 2.991005e+002 2.986388e+002 2.969507e+002 2.970595e+002 2.971968e+002 2.976598e+002 2.986108e+002 2.981049e+002 2.979445e+002 2.982350e+002 
2.550000e+000 3.025034e+002 3.000502e+002 2.981598e+002 2.978111e+002 2.974592e+002 2.973636e+002 2.983612e+002 2.984114e+002 2.985421e+002 2.966643e+002 2.975257e+002 2.979958e+002 2.990153e+002 2.970193e+002 2.984475e+002 2.985120e+002 2.982804e+002 2.971779e+002 2.983338e+002 2.986003e+002 
2.600000e+000 3.046512e+002 3.000963e+002 2.992097e+002 2.972267e+002 2.973379e+002 2.970878e+002 2.978547e+002 2.975762e+002 2.978261e+002 2.975128e+002 2.986932e+002 2.992077e+002 2.990055e+002 2.975154e+002 2.964528e+002 2.987305e+002 2.970735e+002 2.984417e+002 2.980959e+002 2.989818e+002 
2.650000e+000 3.024386e+002 2.995173e+002 2.993571e+002 2.985767e+002 2.992988e+002 2.976185e+002 2.993234e+002 2.993542e+002 2.978107e+002 2.972318e+002 2.985324e+002 2.980972e+002 2.986704e+002 2.972865e+002 2.972617e+002 2.982912e+002 2.978346e+002 2.985870e+002 2.963528e+002 2.992201e+002 
2.700000e+000 3.046286e+002 2.990261e+002 2.987644e+002 2.968145e+002 2.977982e+002 2.967250e+002 2.977224e+002 2.989430e+002 2.977761e+002 2.992109e+002 2.983897e+002 2.977379e+002 2.984967e+002 2.995086e+002 2.973519e+002 2.981318e+002 2.995572e+002 2.984493e+002 2.969549e+002 2.978469e+002 
2.750000e+000 3.035340e+002 2.990357e+002 2.993643e+002 2.971771e+002 2.973125e+002 2.978091e+002 2.978823e+002 2.973286e+002 2.970031e+002 2.972231e+002 2.979296e+002 2.986820e+002 2.977032e+002 2.971587e+002 2.983408e+002 2.985108e+002 2.981349e+002 2.978789e+002 2.980373e+002 2.979891e+002 
2.800000e+000 3.036094e+002 3.005723e+002 2.983355e+002 2.972125e+002 2.985301e+002 2.985487e+002 2.980920e+002 2.981080e+002 2.974078e+002 2.978805e+002 2.971506e+002 2.986024e+002 2.979821e+002 2.998807e+002 2.977825e+002 2.973528e+002 2.984077e+002 2.975366e+002 2.981046e+002 2.978063e+002 
2.850000e+000 3.034087e+002 2.994831e+002 2.972822e+002 2.982548e+002 2.974968e+002 2.968022e+002 2.995785e+002 2.974711e+002 2.995518e+002 2.976308e+002 2.987882e+002 2.983770e+002 2.991711e+002 2.985087e+002 2.988672e+002 2.993552e+002 2.975570e+002 2.968455e+002 2.967478e+002 2.994321e+002 
2.900000e+000 3.028279e+002 3.002412e+002 2.989271e+002 2.971158e+002 2.964382e+002 2.991047e+002 2.983258e+002 2.979103e+002 2.966895e+002 2.979291e+002 2.973442e+002 2.972097e+002 2.979166e+002 2.987465e+002 2.964713e+002 2.967329e+002 2.982701e+002 2.989898e+002 2.975422e+002 2.973914e+002 
2.950000e+000 3.050190e+002 3.001214e+002 2.997541e+002 2.979009e+002 2.989490e+002 2.980647e+002 2.972234e+002 2.992957e+002 2.978927e+002 2.977935e+002 2.990760e+002 2.983985e+002 2.962130e+002 2.982882e+002 2.970511e+002 2.980946e+002 2.993024e+002 2.986502e+002 2.975938e+002 2.982198e+002 
3.000000e+000 3.035782e+002 3.001538e+002 2.991561e+002 2.987241e+002 2.980914e+002 2.987768e+002 2.977523e+002 2.978080e+002 2.986799e+002 2.972563e+002 2.973479e+002 2.992061e+002 2.986024e+002 2.979677e+002 2.967640e+002 2.977298e+002 2.976070e+002 2.979899e+002 2.978022e+002 2.989154e+002 
3.050000e+000 3.033811e+002 3.000060e+002 2.995063e+002 2.981774e+002 2.987035e+002 2.974717e+002 2.974650e+002 2.977844e+002 2.990863e+002 2.970561e+002 2.979992e+002 2.994748e+002 2.970149e+002 2.982118e+002 2.973520e+002 2.964577e+002 2.981533e+002 2.987753e+002 2.983858e+002 2.973266e+002 
3.100000e+000 3.058168e+002 3.018826e+002 2.977875e+002 2.980269e+002 2.972320e+002 2.970291e+002 2.982913e+002 2.975114e+002 2.980876e+002 2.988505e+002 2.992320e+002 2.983244e+002 2.980367e+002 2.986032e+002 2.974159e+002 2.975693e+002 2.988317e+002 2.976129e+002 2.988864e+002 2.985711e+002 
3.150000e+000 3.031099e+002 3.004049e+002 2.972588e+002 2.971806e+002 2.986254e+002 2.971316e+002 2.966533e+002 2.980678e+002 2.972183e+002 2.982438e+002 2.987864e+002 2.970787e+002 2.975901e+002 2.969943e+002 2.975299e+002 2.974231e+002 2.985958e+002 2.981033e+002 2.975495e+002 2.975113e+002 
3.200000e+000 3.030469e+002 3.003782e+002 2.993419e+002 2.989721e+002 2.963450e+002 2.979696e+002 2.967354e+002 2.986668e+002 2.994352e+002 2.970713e+002 2.981473e+002 2.979435e+002 2.984917e+002 2.974079e+002 2.988001e+002 2.984294e+002 2.974663e+002 2.990586e+002 2.983390e+002 2.987006e+002 
3.250000e+000 3.035364e+002 2.999904e+002 2.979266e+002 2.978496e+002 2.978576e+002 2.982038e+002 2.978463e+002 2.983383e+002 2.982579e+002 2.987804e+002 2.982219e+002 2.992073e+002 2.984343e+002 2.987975e+002 2.976967e+002 2.986304e+002 2.966103e+002 2.976191e+002 2.984869e+002 2.976517e+002 
3.300000e+000 3.049852e+002 3.000673e+002 2.987352e+002 2.985753e+002 2.978713e+002 2.985033e+002 2.992982e+002 2.978403e+002 2.975490e+002 2.977981e+002 2.974712e+002 2.973440e+002 2.989041e+002 2.965007e+002 2.984730e+002 2.973524e+002 2.979403e+002 2.986520e+002 2.981135e+002 2.972625e+002 
3.350000e+000 3.041704e+002 3.001760e+002 2.998443e+002 2.987097e+002 2.983406e+002 2.973824e+002 2.968437e+002 2.986073e+002 2.979794e+002 2.984730e+002 2.982199e+002 2.984612e+002 2.979322e+002 2.989901e+002 2.966059e+002 2.972170e+002 2.980954e+002 2.968646e+002 2.984633e+002 2.993179e+002 
3.400000e+000 3.045633e+002 2.996711e+002 2.988879e+002 2.982253e+002 2.968170e+002 2.969908e+002 2.977003e+002 2.969781e+002 2.978391e+002 2.968113e+002 2.983926e+002 2.987363e+002 2.990177e+002 2.982871e+002 2.981702e+002 2.988412e+002 2.969120e+002 2.979648e+002 2.976090e+002 2.990602e+002 
3.450000e+000 3.043782e+002 2.991816e+002 2.974881e+002 2.979388e+002 2.984538e+002 2.981433e+002 2.986598e+002 2.977075e+002 2.985397e+002 2.978947e+002 2.998149e+002 2.980220e+002 2.983843e+002 2.984305e+002 2.990288e+002 2.986429e+002 2.976383e+002 2.973681e+002 2.969388e+002 2.984979e+002 
3.500000e+000 3.034427e+002 2.993473e+002 2.983368e+002 2.977918e+002 2.975262e+002 2.983911e+002 2.979134e+002 2.999551e+002 2.990698e+002 2.981678e+002 2.986719e+002 2.967916e+002 2.977652e+002 2.973574e+002 2.973571e+002 2.978568e+002 2.981220e+002 2.970738e+002 2.964406e+002 2.976051e+002 
3.550000e+000 3.044000e+002 3.002118e+002 2.978196e+002 2.970521e+002 2.981424e+002 2.980045e+002 2.977342e+002 2.975593e+002 2.981907e+002 2.978600e+002 2.978026e+002 2.981388e+002 2.980601e+002 2.971937e+002 2.972504e+002 2.990072e+002 2.978031e+002 2.979210e+002 2.979668e+002 2.975426e+002 
3.600000e+000 3.037577e+002 2.991906e+002 2.982890e+002 2.968001e+002 2.970438e+002 2.971880e+002 2.987111e+002 2.965762e+002 2.976083e+002 2.972032e+002 2.983026e+002 2.981131e+002 2.992212e+002 2.983703e+002 2.977358e+002 2.978423e+002 2.984233e+002 2.978136e+002 2.983389e+002 2.990765e+002 
3.650000e+000 3.057662e+002 3.008835e+002 2.976838e+002 2.983207e+002 2.986604e+002 2.979554e+002 2.968536e+002 2.966969e+002 2.985118e+002 2.991105e+002 2.992455e+002 2.988067e+002 2.977337e+002 2.989327e+002 2.990465e+002 2.984739e+002 2.985001e+002 2.990534e+002 2.967680e+002 2.990531e+002 
3.700000e+000 3.036728e+002 3.008771e+002 2.986847e+002 2.998226e+002 2.976972e+002 2.984597e+002 2.979534e+002 2.981324e+002 2.977647e+002 2.989269e+002 2.971809e+002 2.972676e+002 2.977353e+002 2.964334e+002 2.976061e+002 2.973333e+002 2.973678e+002 2.962872e+002 2.979348e+002 2.980772e+002 
3.750000e+000 3.033689e+002 3.009251e+002 3.006046e+002 2.972551e+002 2.991086e+002 2.969851e+002 2.968789e+002 2.985303e+002 2.980729e+002 2.994906e+002 2.983684e+002 2.989320e+002 2.983321e+002 2.980963e+002 2.979311e+002 2.997079e+002 2.987749e+002 2.986575e+002 2.976481e+002 2.974023e+002 
3.800000e+000 3.044243e+002 3.007207e+002 2.997098e+002 2.980657e+002 2.975205e+002 2.981095e+002 2.969576e+002 2.977584e+002 2.976041e+002 2.984888e+002 2.976658e+002 2.985763e+002 2.991148e+002 2.986046e+002 2.982633e+002 2.965143e+002 2.993029e+002 2.982809e+002 2.992738e+002 2.974285e+002 
3.850000e+000 3.051887e+002 3.003785e+002 3.000008e+002 2.992077e+002 2.987064e+002 2.971161e+002 2.988007e+002 2.982146e+002 2.988087e+002 2.975724e+002 2.976403e+002 2.981264e+002 2.984346e+002 2.981407e+002 2.975856e+002 2.989611e+002 2.982398e+002 2.982157e+002 2.979558e+002 2.981566e+002 
3.900000e+000 3.040056e+002 3.010241e+002 2.992434e+002 2.978119e+002 2.972642e+002 2.978849e+002 2.973695e+002 2.977511e+002 2.987645e+002 2.992487e+002 2.971122e+002 2.982415e+002 2.981315e+002 2.968657e+002 2.978756e+002 2.976905e+002 2.966758e+002 2.985317e+002 2.977890e+002 2.984495e+002 
3.950000e+000 3.051861e+002 3.005004e+002 2.996599e+002 3.000262e+002 2.981202e+002 2.981427e+002 2.980186e+002 2.979957e+002 2.969140e+002 2.985462e+002 2.976948e+002 2.991141e+002 2.978431e+002 2.971960e+002 2.977735e+002 2.975650e+002 2.987823e+002 2.973022e+002 2.981020e+002 2.971076e+002 
4.000000e+000 3.039975e+002 3.006699e+002 2.983575e+002 2.985139e+002 2.983840e+002 2.986169e+002 2.987829e+002 2.980550e+002 2.980610e+002 2.980304e+002 2.978324e+002 2.984579e+002 2.986160e+002 2.979160e+002 2.983331e+002 2.970650e+002 2.988018e+002 2.980697e+002 2.985668e+002 2.989696e+002 
4.050000e+000 3.055855e+002 3.009861e+002 2.994483e+002 2.984678e+002 3.001635e+002 2.977068e+002 2.969593e+002 2.984609e+002 2.981790e+002 2.983221e+002 2.991200e+002 2.980967e+002 2.979053e+002 2.985807e+002 2.981363e+002 2.971408e+002 2.976252e+002 2.984887e+002 2.968619e+002 2.977717e+002 
4.100000e+000 3.034797e+002 3.010977e+002 2.995628e+002 2.981570e+002 2.983110e+002 2.973503e+002 2.965475e+002 2.980056e+002 2.981940e+002 2.977687e+002 2.983871e+002 2.980041e+002 2.974994e+002 2.976294e+002 2.979869e+002 2.988084e+002 2.968812e+002 2.977922e+002 2.984346e+002 2.976937e+002 
4.150000e+000 3.049434e+002 3.008928e+002 2.987915e+002 2.991469e+002 2.988792e+002 2.982539e+002 2.968188e+002 2.980391e+002 2.974567e+002 2.990832e+002 2.966413e+002 2.990046e+002 2.969023e+002 2.976275e+002 2.982019e+002 2.990100e+002 2.974089e+002 2.980825e+002 2.989250e+002 2.976639e+002 
4.200000e+000 3.054222e+002 3.020806e+002 2.986560e+002 2.993857e+002 2.986985e+002 2.982060e+002 2.969561e+002 2.969312e+002 2.981175e+002 2.969528e+002 2.993816e+002 2.990197e+002 2.984986e+002 2.986153e+002 2.964572e+002 2.975857e+002 2.980282e+002 2.993201e+002 2.974792e+002 2.992433e+002 
4.250000e+000 3.037779e+002 3.011307e+002 2.988902e+002 2.982731e+002 2.991203e+002 2.986540e+002 2.998943e+002 2.983841e+002 2.986566e+002 2.981208e+002 2.981183e+002 2.989421e+002 2.976212e+002 2.993591e+002 2.987747e+002 2.974564e+002 2.969525e+002 2.984688e+002 2.970276e+002 2.975337e+002 
4.300000e+000 3.057406e+002 3.011116e+002 2.992417e+002 2.987173e+002 2.979834e+002 2.981954e+002 2.979171e+002 2.986632e+002 2.984599e+002 2.982598e+002 2.977820e+002 2.983647e+002 2.986223e+002 2.988845e+002 2.979509e+002 2.983049e+002 2.976552e+002 2.980775e+002 2.984140e+002 2.975728e+002 
4.350000e+000 3.064627e+002 2.998481e+002 2.993239e+002 2.982854e+002 2.979467e+002 2.976698e+002 3.000861e+002 2.972320e+002 2.975764e+002 2.980678e+002 2.966821e+002 2.976050e+002 2.973765e+002 2.978383e+002 2.981314e+002 2.991545e+002 2.988279e+002 2.977206e+002 2.970995e+002 2.982024e+002 
4.400000e+000 3.053215e+002 3.013967e+002 2.981603e+002 2.989031e+002 2.989360e+002 2.987863e+002 2.982724e+002 2.976969e+002 2.978473e+002 2.979588e+002 2.993128e+002 2.985598e+002 2.974995e+002 2.989463e+002 2.983645e+002 2.971006e+002 2.963130e+002 2.985466e+002 2.971305e+002 2.977001e+002 
4.450000e+000 3.059729e+002 3.019160e+002 2.998067e+002 2.983699e+002 2.981199e+002 2.978438e+002 2.973684e+002 2.988350e+002 2.975599e+002 2.978007e+002 2.980003e+002 2.981629e+002 2.984990e+002 2.975912e+002 2.978178e+002 2.978321e+002 2.969146e+002 2.980284e+002 2.977418e+002 2.977680e+002 
4.500000e+000 3.054752e+002 3.004693e+002 2.997786e+002 2.990558e+002 2.996024e+002 2.983078e+002 2.980327e+002 2.996016e+002 2.971267e+002 2.965627e+002 2.968513e+002 2.986407e+002 2.974479e+002 2.980782e+002 2.967022e+002 2.984100e+002 2.977369e+002 2.987279e+002 2.981434e+002 2.984053e+002 
4.550000e+000 3.046328e+002 3.008255e+002 2.993727e+002 2.985232e+002 2.974035e+002 2.970093e+002 2.984753e+002 2.982238e+002 2.980702e+002 2.974996e+002 2.967449e+002 2.979629e+002 2.978689e+002 2.989824e+002 2.979081e+002 2.979862e+002 2.971321e+002 2.976146e+002 2.982523e+002 2.978176e+002 
4.600000e+000 3.049677e+002 3.005429e+002 2.984287e+002 2.981544e+002 2.970098e+002 2.989969e+002 2.985145e+002 2.982189e+002 2.984292e+002 2.972013e+002 2.986713e+002 2.993556e+002 2.973020e+002 2.990872e+002 2.966677e+002 2.984475e+002 2.982839e+002 2.969230e+002 2.983588e+002 2.979484e+002 
4.650000e+000 3.041011e+002 3.000510e+002 3.006792e+002 2.990461e+002 2.975870e+002 2.991699e+002 2.991958e+002 2.964259e+002 2.983383e+002 2.971900e+002 2.982561e+002 2.986871e+002 2.989556e+002 2.976183e+002 2.980251e+002 2.978564e+002 2.971316e+002 2.985475e+002 2.984690e+002 2.982353e+002 
4.700000e+000 3.050790e+002 2.996810e+002 2.996092e+002 2.982102e+002 2.983538e+002 2.979846e+002 2.972448e+002 2.986396e+002 2.969626e+002 2.981273e+002 2.972456e+002 2.977023e+002 2.978807e+002 2.987603e+002 2.994133e+002 2.987791e+002 2.980733e+002 2.987053e+002 2.979856e+002 2.972570e+002 
4.750000e+000 3.059068e+002 3.014407e+002 2.978926e+002 2.971437e+002 2.998357e+002 2.987147e+002 2.994307e+002 2.963859e+002 2.978667e+002 2.981426e+002 2.974031e+002 2.979826e+002 2.973749e+002 2.987706e+002 2.991161e+002 2.984469e+002 2.992425e+002 2.987985e+002 2.988917e+002 2.983012e+002 
4.800000e+000 3.053064e+002 3.013290e+002 2.981906e+002 2.993648e+002 2.977434e+002 2.985591e+002 2.966330e+002 2.972685e+002 2.985056e+002 2.974872e+002 2.982389e+002 2.985288e+002 2.982904e+002 2.972758e+002 2.976833e+002 2.981966e+002 2.994212e+002 2.975370e+002 2.987824e+002 2.985936e+002 
4.850000e+000 3.055249e+002 3.008673e+002 2.994950e+002 2.978942e+002 2.981834e+002 2.973950e+002 2.987435e+002 2.985897e+002 2.972474e+002 2.981897e+002 2.988353e+002 2.976250e+002 2.974146e+002 2.986812e+002 2.988269e+002 2.988353e+002 2.974992e+002 2.984099e+002 2.980417e+002 2.988532e+002 
4.900000e+000 3.063400e+002 3.007402e+002 2.989651e+002 2.986156e+002 2.979538e+002 2.973288e+002 2.980709e+002 2.986303e+002 2.964888e+002 2.980775e+002 2.971925e+002 2.976925e+002 2.967057e+002 2.974344e+002 2.977304e+002 2.983553e+002 2.977987e+002 2.983027e+002 2.983419e+002 2.981752e+002 
4.950000e+000 3.051870e+002 3.029243e+002 2.986353e+002 2.963306e+002 2.981103e+002 2.969488e+002 2.977145e+002 2.972941e+002 2.965243e+002 2.967873e+002 2.973529e+002 2.976359e+002 2.979520e+002 2.983512e+002 2.988256e+002 2.970864e+002 2.985366e+002 2.973708e+002 2.982278e+002 2.986885e+002 
5.000000e+000 3.058577e+002 3.027975e+002 2.982175e+002 2.993430e+002 2.977602e+002 2.988705e+002 2.986606e+002 2.989412e+002 2.979424e+002 2.982812e+002 2.983279e+002 2.985628e+002 2.970791e+002 2.986500e+002 2.968288e+002 2.980495e+002 2.975889e+002 2.985819e+002 2.982331e+002 2.983854e+002 